 Entering Gaussian System, Link 0=/home/user/SOFTWARE/gauss/g16/g16
 Input=/home/user/WorkIMPORTANT/Joydeep/I-M2/-1/I-M2.gjf
 Output=/home/user/WorkIMPORTANT/Joydeep/I-M2/-1/I-M2.log
 Initial command:
 /home/user/SOFTWARE/gauss/g16/l1.exe "/home/user/SOFTWARE/gauss/scratch/Gau-36954.inp" -scrdir="/home/user/SOFTWARE/gauss/scratch/"
 Entering Link 1 = /home/user/SOFTWARE/gauss/g16/l1.exe PID=     36956.
  
 Copyright (c) 1988-2019, Gaussian, Inc.  All Rights Reserved.
  
 This is part of the Gaussian(R) 16 program.  It is based on
 the Gaussian(R) 09 system (copyright 2009, Gaussian, Inc.),
 the Gaussian(R) 03 system (copyright 2003, Gaussian, Inc.),
 the Gaussian(R) 98 system (copyright 1998, Gaussian, Inc.),
 the Gaussian(R) 94 system (copyright 1995, Gaussian, Inc.),
 the Gaussian 92(TM) system (copyright 1992, Gaussian, Inc.),
 the Gaussian 90(TM) system (copyright 1990, Gaussian, Inc.),
 the Gaussian 88(TM) system (copyright 1988, Gaussian, Inc.),
 the Gaussian 86(TM) system (copyright 1986, Carnegie Mellon
 University), and the Gaussian 82(TM) system (copyright 1983,
 Carnegie Mellon University). Gaussian is a federally registered
 trademark of Gaussian, Inc.
  
 This software contains proprietary and confidential information,
 including trade secrets, belonging to Gaussian, Inc.
  
 This software is provided under written license and may be
 used, copied, transmitted, or stored only in accord with that
 written license.
  
 The following legend is applicable only to US Government
 contracts under FAR:
  
                    RESTRICTED RIGHTS LEGEND
  
 Use, reproduction and disclosure by the US Government is
 subject to restrictions as set forth in subparagraphs (a)
 and (c) of the Commercial Computer Software - Restricted
 Rights clause in FAR 52.227-19.
  
 Gaussian, Inc.
 340 Quinnipiac St., Bldg. 40, Wallingford CT 06492
  
  
 ---------------------------------------------------------------
 Warning -- This program may not be used in any manner that
 competes with the business of Gaussian, Inc. or will provide
 assistance to any competitor of Gaussian, Inc.  The licensee
 of this program is prohibited from giving any competitor of
 Gaussian, Inc. access to this program.  By using this program,
 the user acknowledges that Gaussian, Inc. is engaged in the
 business of creating and licensing software in the field of
 computational chemistry and represents and warrants to the
 licensee that it is not a competitor of Gaussian, Inc. and that
 it will not use this program in any manner prohibited above.
 ---------------------------------------------------------------
  

 Cite this work as:
 Gaussian 16, Revision C.01,
 M. J. Frisch, G. W. Trucks, H. B. Schlegel, G. E. Scuseria, 
 M. A. Robb, J. R. Cheeseman, G. Scalmani, V. Barone, 
 G. A. Petersson, H. Nakatsuji, X. Li, M. Caricato, A. V. Marenich, 
 J. Bloino, B. G. Janesko, R. Gomperts, B. Mennucci, H. P. Hratchian, 
 J. V. Ortiz, A. F. Izmaylov, J. L. Sonnenberg, D. Williams-Young, 
 F. Ding, F. Lipparini, F. Egidi, J. Goings, B. Peng, A. Petrone, 
 T. Henderson, D. Ranasinghe, V. G. Zakrzewski, J. Gao, N. Rega, 
 G. Zheng, W. Liang, M. Hada, M. Ehara, K. Toyota, R. Fukuda, 
 J. Hasegawa, M. Ishida, T. Nakajima, Y. Honda, O. Kitao, H. Nakai, 
 T. Vreven, K. Throssell, J. A. Montgomery, Jr., J. E. Peralta, 
 F. Ogliaro, M. J. Bearpark, J. J. Heyd, E. N. Brothers, K. N. Kudin, 
 V. N. Staroverov, T. A. Keith, R. Kobayashi, J. Normand, 
 K. Raghavachari, A. P. Rendell, J. C. Burant, S. S. Iyengar, 
 J. Tomasi, M. Cossi, J. M. Millam, M. Klene, C. Adamo, R. Cammi, 
 J. W. Ochterski, R. L. Martin, K. Morokuma, O. Farkas, 
 J. B. Foresman, and D. J. Fox, Gaussian, Inc., Wallingford CT, 2019.
 
 ******************************************
 Gaussian 16:  ES64L-G16RevC.01  3-Jul-2019
                15-May-2023 
 ******************************************
 %mem=48GB
 %nprocshared=12
 Will use up to   12 processors via shared memory.
 --------------------------------
 # 6-31+g(d,p) pop=(full,nbo) m06
 --------------------------------
 1/38=1,172=1/1;
 2/12=2,17=6,18=5,40=1/2;
 3/5=1,6=6,7=111,11=2,25=1,30=1,74=-54/1,2,3;
 4//1;
 5/5=2,38=5/2;
 6/7=3,28=1,40=1/1,7;
 99/5=1,9=1/99;
 ----
 I-M2
 ----
 Symbolic Z-matrix:
 Charge = -1 Multiplicity = 2
 C                     2.81502   0.2673    0.00026 
 O                     2.80626  -1.0773   -0.00033 
 C                     0.76538  -0.44875  -0.00015 
 C                     1.53902   0.74046   0.00035 
 H                     1.19008   1.76148   0.00061 
 N                     1.50268  -1.53791  -0.00057 
 C                     4.14118   0.9202    0.00047 
 H                     4.02565   2.00654   0.00202 
 H                     4.71898   0.62746   0.88381 
 H                     4.71804   0.62994  -0.8843 
 N                    -0.61292  -0.60079  -0.00008 
 H                    -0.97765  -1.54996   0.0003 
 C                    -1.51244   0.42051  -0.00029 
 O                    -1.25892   1.60553  -0.00076 
 C                    -2.94601  -0.1298    0.00017 
 O                    -3.19835  -1.31249   0.00062 
 O                    -3.84794   0.84078   0.00008 
 H                    -4.7247    0.42368   0.00035 
 
                          Input orientation:                          
 ---------------------------------------------------------------------
 Center     Atomic      Atomic             Coordinates (Angstroms)
 Number     Number       Type             X           Y           Z
 ---------------------------------------------------------------------
      1          6           0        2.815018    0.267296    0.000256
      2          8           0        2.806257   -1.077298   -0.000325
      3          6           0        0.765383   -0.448753   -0.000152
      4          6           0        1.539024    0.740456    0.000351
      5          1           0        1.190082    1.761481    0.000606
      6          7           0        1.502682   -1.537905   -0.000570
      7          6           0        4.141179    0.920201    0.000470
      8          1           0        4.025646    2.006539    0.002023
      9          1           0        4.718979    0.627462    0.883806
     10          1           0        4.718042    0.629938   -0.884303
     11          7           0       -0.612923   -0.600792   -0.000082
     12          1           0       -0.977647   -1.549964    0.000298
     13          6           0       -1.512436    0.420509   -0.000286
     14          8           0       -1.258921    1.605534   -0.000756
     15          6           0       -2.946013   -0.129795    0.000172
     16          8           0       -3.198349   -1.312485    0.000620
     17          8           0       -3.847943    0.840781    0.000075
     18          1           0       -4.724697    0.423680    0.000350
 ---------------------------------------------------------------------
                    Distance matrix (angstroms):
                    1          2          3          4          5
     1  C    0.000000
     2  O    1.344623   0.000000
     3  C    2.171113   2.135471   0.000000
     4  C    1.360897   2.215877   1.418710   0.000000
     5  H    2.207489   3.266602   2.250667   1.079005   0.000000
     6  N    2.231810   1.382558   1.315242   2.278651   3.314162
     7  C    1.478170   2.402503   3.642806   2.608356   3.068668
     8  H    2.119101   3.316167   4.081394   2.790387   2.846134
     9  H    2.129659   2.710424   4.191723   3.302329   3.810401
    10  H    2.129661   2.711272   4.191516   3.301664   3.809194
    11  N    3.536150   3.452224   1.386666   2.535709   2.971727
    12  H    4.205561   3.813311   2.061752   3.402889   3.957868
    13  C    4.330165   4.571054   2.438048   3.068188   3.016921
    14  O    4.288107   4.870653   2.884077   2.928627   2.453964
    15  C    5.774700   5.829783   3.725076   4.568686   4.547989
    16  O    6.217418   6.009210   4.056748   5.163068   5.357947
    17  O    6.687596   6.925129   4.790164   5.387901   5.121463
    18  H    7.541337   7.679076   5.558967   6.271726   6.064184
                    6          7          8          9         10
     6  N    0.000000
     7  C    3.606099   0.000000
     8  H    4.350682   1.092465   0.000000
     9  H    3.976871   1.095368   1.777668   0.000000
    10  H    3.977319   1.095375   1.777643   1.768111   0.000000
    11  N    2.313864   4.991483   5.321137   5.542476   5.542177
    12  H    2.480358   5.683669   6.138539   6.162249   6.162416
    13  C    3.595319   5.675655   5.760716   6.297220   6.296364
    14  O    4.184216   5.443415   5.299760   6.121631   6.120174
    15  C    4.666226   7.164550   7.291636   7.752828   7.752240
    16  O    4.706433   7.671607   7.949970   8.199237   8.199106
    17  O    5.855539   7.989517   7.959422   8.615024   8.614098
    18  H    6.529017   8.879769   8.892353   9.487099   9.486331
                   11         12         13         14         15
    11  N    0.000000
    12  H    1.016834   0.000000
    13  C    1.360948   2.041755   0.000000
    14  O    2.298954   3.168009   1.211839   0.000000
    15  C    2.380157   2.427209   1.535571   2.420258   0.000000
    16  O    2.681592   2.233364   2.417762   3.503743   1.209309
    17  O    3.541679   3.735540   2.373020   2.699608   1.324951
    18  H    4.237479   4.235051   3.212263   3.661746   1.862807
                   16         17         18
    16  O    0.000000
    17  O    2.249117   0.000000
    18  H    2.311711   0.970912   0.000000
 Stoichiometry    C6H6N2O4(1-,2)
 Framework group  C1[X(C6H6N2O4)]
 Deg. of freedom    48
 Full point group                 C1      NOp   1
 Largest Abelian subgroup         C1      NOp   1
 Largest concise Abelian subgroup C1      NOp   1
                         Standard orientation:                         
 ---------------------------------------------------------------------
 Center     Atomic      Atomic             Coordinates (Angstroms)
 Number     Number       Type             X           Y           Z
 ---------------------------------------------------------------------
      1          6           0       -2.815018    0.267296   -0.000256
      2          8           0       -2.806257   -1.077298    0.000325
      3          6           0       -0.765383   -0.448753    0.000152
      4          6           0       -1.539024    0.740456   -0.000351
      5          1           0       -1.190082    1.761481   -0.000606
      6          7           0       -1.502682   -1.537905    0.000570
      7          6           0       -4.141179    0.920201   -0.000470
      8          1           0       -4.025646    2.006539   -0.002023
      9          1           0       -4.718979    0.627462   -0.883806
     10          1           0       -4.718042    0.629938    0.884303
     11          7           0        0.612923   -0.600792    0.000082
     12          1           0        0.977647   -1.549964   -0.000298
     13          6           0        1.512436    0.420509    0.000286
     14          8           0        1.258921    1.605534    0.000756
     15          6           0        2.946013   -0.129795   -0.000172
     16          8           0        3.198349   -1.312485   -0.000620
     17          8           0        3.847943    0.840781   -0.000075
     18          1           0        4.724697    0.423680   -0.000350
 ---------------------------------------------------------------------
 Rotational constants (GHZ):           2.9557061           0.4417487           0.3852340
 Standard basis: 6-31+G(d,p) (6D, 7F)
 There are   258 symmetry adapted cartesian basis functions of A   symmetry.
 There are   258 symmetry adapted basis functions of A   symmetry.
   258 basis functions,   426 primitive gaussians,   258 cartesian basis functions
    45 alpha electrons       44 beta electrons
       nuclear repulsion energy       676.5275823784 Hartrees.
 NAtoms=   18 NActive=   18 NUniq=   18 SFac= 1.00D+00 NAtFMM=   60 NAOKFM=F Big=F
 Integral buffers will be    131072 words long.
 Raffenetti 2 integral format.
 Two-electron integral symmetry is turned on.
 One-electron integrals computed using PRISM.
 NBasis=   258 RedAO= T EigKep=  7.98D-06  NBF=   258
 NBsUse=   258 1.00D-06 EigRej= -1.00D+00 NBFU=   258
 ExpMin= 4.38D-02 ExpMax= 5.48D+03 ExpMxC= 8.25D+02 IAcc=3 IRadAn=         5 AccDes= 0.00D+00
 Harris functional with IExCor= 1009 and IRadAn=       5 diagonalized for initial guess.
 HarFok:  IExCor= 1009 AccDes= 0.00D+00 IRadAn=         5 IDoV= 1 UseB2=F ITyADJ=14
 ICtDFT=  3500011 ScaDFX=  1.000000  1.000000  1.000000  1.000000
 FoFCou: FMM=F IPFlag=           0 FMFlag=      100000 FMFlg1=           0
         NFxFlg=           0 DoJE=T BraDBF=F KetDBF=T FulRan=T
         wScrn=  0.000000 ICntrl=       500 IOpCl=  0 I1Cent=   200000004 NGrid=           0
         NMat0=    1 NMatS0=      1 NMatT0=    0 NMatD0=    1 NMtDS0=    0 NMtDT0=    0
 Petite list used in FoFCou.
 Initial guess <Sx>= 0.0000 <Sy>= 0.0000 <Sz>= 0.5000 <S**2>= 0.7500 S= 0.5000
 Requested convergence on RMS density matrix=1.00D-08 within 128 cycles.
 Requested convergence on MAX density matrix=1.00D-06.
 Requested convergence on             energy=1.00D-06.
 No special actions if energy rises.
 EnCoef did     2 forward-backward iterations
 Restarting incremental Fock formation.
 SCF Done:  E(UM06) =  -642.319824111     A.U. after   30 cycles
            NFock= 30  Conv=0.35D-08     -V/T= 2.0089
 <Sx>= 0.0000 <Sy>= 0.0000 <Sz>= 0.5000 <S**2>= 0.7544 S= 0.5022
 <L.S>=  0.00000000000    
 Annihilation of the first spin contaminant:
 S**2 before annihilation     0.7544,   after     0.7500

 **********************************************************************

            Population analysis using the SCF Density.

 **********************************************************************

 Orbital symmetries:
 Alpha Orbitals:
       Occupied  (A) (A) (A) (A) (A) (A) (A) (A) (A) (A) (A) (A)
                 (A) (A) (A) (A) (A) (A) (A) (A) (A) (A) (A) (A)
                 (A) (A) (A) (A) (A) (A) (A) (A) (A) (A) (A) (A)
                 (A) (A) (A) (A) (A) (A) (A) (A) (A)
       Virtual   (A) (A) (A) (A) (A) (A) (A) (A) (A) (A) (A) (A)
                 (A) (A) (A) (A) (A) (A) (A) (A) (A) (A) (A) (A)
                 (A) (A) (A) (A) (A) (A) (A) (A) (A) (A) (A) (A)
                 (A) (A) (A) (A) (A) (A) (A) (A) (A) (A) (A) (A)
                 (A) (A) (A) (A) (A) (A) (A) (A) (A) (A) (A) (A)
                 (A) (A) (A) (A) (A) (A) (A) (A) (A) (A) (A) (A)
                 (A) (A) (A) (A) (A) (A) (A) (A) (A) (A) (A) (A)
                 (A) (A) (A) (A) (A) (A) (A) (A) (A) (A) (A) (A)
                 (A) (A) (A) (A) (A) (A) (A) (A) (A) (A) (A) (A)
                 (A) (A) (A) (A) (A) (A) (A) (A) (A) (A) (A) (A)
                 (A) (A) (A) (A) (A) (A) (A) (A) (A) (A) (A) (A)
                 (A) (A) (A) (A) (A) (A) (A) (A) (A) (A) (A) (A)
                 (A) (A) (A) (A) (A) (A) (A) (A) (A) (A) (A) (A)
                 (A) (A) (A) (A) (A) (A) (A) (A) (A) (A) (A) (A)
                 (A) (A) (A) (A) (A) (A) (A) (A) (A) (A) (A) (A)
                 (A) (A) (A) (A) (A) (A) (A) (A) (A) (A) (A) (A)
                 (A) (A) (A) (A) (A) (A) (A) (A) (A) (A) (A) (A)
                 (A) (A) (A) (A) (A) (A) (A) (A) (A)
 Beta  Orbitals:
       Occupied  (A) (A) (A) (A) (A) (A) (A) (A) (A) (A) (A) (A)
                 (A) (A) (A) (A) (A) (A) (A) (A) (A) (A) (A) (A)
                 (A) (A) (A) (A) (A) (A) (A) (A) (A) (A) (A) (A)
                 (A) (A) (A) (A) (A) (A) (A) (A)
       Virtual   (A) (A) (A) (A) (A) (A) (A) (A) (A) (A) (A) (A)
                 (A) (A) (A) (A) (A) (A) (A) (A) (A) (A) (A) (A)
                 (A) (A) (A) (A) (A) (A) (A) (A) (A) (A) (A) (A)
                 (A) (A) (A) (A) (A) (A) (A) (A) (A) (A) (A) (A)
                 (A) (A) (A) (A) (A) (A) (A) (A) (A) (A) (A) (A)
                 (A) (A) (A) (A) (A) (A) (A) (A) (A) (A) (A) (A)
                 (A) (A) (A) (A) (A) (A) (A) (A) (A) (A) (A) (A)
                 (A) (A) (A) (A) (A) (A) (A) (A) (A) (A) (A) (A)
                 (A) (A) (A) (A) (A) (A) (A) (A) (A) (A) (A) (A)
                 (A) (A) (A) (A) (A) (A) (A) (A) (A) (A) (A) (A)
                 (A) (A) (A) (A) (A) (A) (A) (A) (A) (A) (A) (A)
                 (A) (A) (A) (A) (A) (A) (A) (A) (A) (A) (A) (A)
                 (A) (A) (A) (A) (A) (A) (A) (A) (A) (A) (A) (A)
                 (A) (A) (A) (A) (A) (A) (A) (A) (A) (A) (A) (A)
                 (A) (A) (A) (A) (A) (A) (A) (A) (A) (A) (A) (A)
                 (A) (A) (A) (A) (A) (A) (A) (A) (A) (A) (A) (A)
                 (A) (A) (A) (A) (A) (A) (A) (A) (A) (A) (A) (A)
                 (A) (A) (A) (A) (A) (A) (A) (A) (A) (A)
 The electronic state is 2-A.
 Alpha  occ. eigenvalues --  -19.18423 -19.12319 -19.04765 -19.02553 -14.30205
 Alpha  occ. eigenvalues --  -14.28988 -10.20228 -10.19304 -10.18565 -10.17056
 Alpha  occ. eigenvalues --  -10.16766 -10.12920  -1.03583  -0.97284  -0.89178
 Alpha  occ. eigenvalues --   -0.87812  -0.81096  -0.72715  -0.69262  -0.62008
 Alpha  occ. eigenvalues --   -0.54448  -0.49956  -0.46973  -0.43789  -0.39301
 Alpha  occ. eigenvalues --   -0.37262  -0.37070  -0.34078  -0.33353  -0.32476
 Alpha  occ. eigenvalues --   -0.31529  -0.31485  -0.29673  -0.28355  -0.26674
 Alpha  occ. eigenvalues --   -0.26382  -0.23930  -0.20044  -0.18483  -0.18230
 Alpha  occ. eigenvalues --   -0.16191  -0.14367  -0.11221  -0.09215   0.05239
 Alpha virt. eigenvalues --    0.06089   0.09676   0.09945   0.10288   0.10396
 Alpha virt. eigenvalues --    0.11888   0.12844   0.13073   0.14100   0.14316
 Alpha virt. eigenvalues --    0.15619   0.15679   0.16815   0.17419   0.17483
 Alpha virt. eigenvalues --    0.18433   0.20521   0.21731   0.21818   0.22762
 Alpha virt. eigenvalues --    0.23690   0.24743   0.24863   0.25708   0.27289
 Alpha virt. eigenvalues --    0.27557   0.28481   0.29112   0.30322   0.30419
 Alpha virt. eigenvalues --    0.30910   0.31909   0.32131   0.32857   0.33182
 Alpha virt. eigenvalues --    0.33716   0.34908   0.36379   0.36482   0.36914
 Alpha virt. eigenvalues --    0.37973   0.38469   0.39230   0.40014   0.40572
 Alpha virt. eigenvalues --    0.41055   0.41268   0.41471   0.42256   0.43588
 Alpha virt. eigenvalues --    0.43933   0.44262   0.44728   0.44860   0.46419
 Alpha virt. eigenvalues --    0.48350   0.50285   0.50879   0.52376   0.53304
 Alpha virt. eigenvalues --    0.54192   0.57078   0.59414   0.60602   0.61399
 Alpha virt. eigenvalues --    0.64885   0.66257   0.68868   0.73831   0.76945
 Alpha virt. eigenvalues --    0.80613   0.81630   0.83235   0.83797   0.84922
 Alpha virt. eigenvalues --    0.85688   0.86805   0.89118   0.93806   0.94572
 Alpha virt. eigenvalues --    0.96236   0.98844   0.99092   1.01511   1.02977
 Alpha virt. eigenvalues --    1.05785   1.06367   1.09776   1.09935   1.12908
 Alpha virt. eigenvalues --    1.13120   1.13723   1.15736   1.17532   1.20725
 Alpha virt. eigenvalues --    1.21552   1.26081   1.28521   1.30095   1.30183
 Alpha virt. eigenvalues --    1.31152   1.31196   1.37974   1.38042   1.39751
 Alpha virt. eigenvalues --    1.39903   1.42072   1.43755   1.46676   1.47446
 Alpha virt. eigenvalues --    1.48192   1.48382   1.49564   1.50390   1.50452
 Alpha virt. eigenvalues --    1.52592   1.55321   1.55925   1.57621   1.58035
 Alpha virt. eigenvalues --    1.59703   1.62015   1.63318   1.66299   1.69553
 Alpha virt. eigenvalues --    1.73381   1.75707   1.75929   1.79668   1.80290
 Alpha virt. eigenvalues --    1.80824   1.84642   1.86295   1.91797   1.92085
 Alpha virt. eigenvalues --    1.95149   1.99700   2.00858   2.01639   2.04720
 Alpha virt. eigenvalues --    2.05723   2.08233   2.09419   2.09792   2.10408
 Alpha virt. eigenvalues --    2.12542   2.14851   2.15312   2.18721   2.22673
 Alpha virt. eigenvalues --    2.24687   2.25702   2.26551   2.29737   2.30893
 Alpha virt. eigenvalues --    2.31013   2.36099   2.40135   2.42979   2.43510
 Alpha virt. eigenvalues --    2.43835   2.50153   2.50789   2.54169   2.56048
 Alpha virt. eigenvalues --    2.56908   2.63368   2.63760   2.64689   2.66155
 Alpha virt. eigenvalues --    2.70454   2.70595   2.74918   2.76813   2.77919
 Alpha virt. eigenvalues --    2.79886   2.80410   2.86903   2.90100   2.90909
 Alpha virt. eigenvalues --    2.92950   2.97648   3.00599   3.03954   3.06982
 Alpha virt. eigenvalues --    3.11953   3.12914   3.14119   3.18951   3.24268
 Alpha virt. eigenvalues --    3.32795   3.34726   3.36154   3.39951   3.43626
 Alpha virt. eigenvalues --    3.48089   3.49329   3.54139   3.64159   3.69330
 Alpha virt. eigenvalues --    3.81553   4.28812   4.40093   4.42812   4.49066
 Alpha virt. eigenvalues --    4.52211   4.56323   4.61647   4.67987   4.75793
 Alpha virt. eigenvalues --    4.82988   4.90628   5.15072
  Beta  occ. eigenvalues --  -19.18335 -19.12237 -19.04474 -19.02210 -14.30018
  Beta  occ. eigenvalues --  -14.29008 -10.20201 -10.19029 -10.18533 -10.17059
  Beta  occ. eigenvalues --  -10.16498 -10.12940  -1.03333  -0.96739  -0.88158
  Beta  occ. eigenvalues --   -0.86845  -0.80734  -0.72403  -0.69172  -0.61938
  Beta  occ. eigenvalues --   -0.53580  -0.49628  -0.46746  -0.43512  -0.39169
  Beta  occ. eigenvalues --   -0.36939  -0.36841  -0.33782  -0.32829  -0.31957
  Beta  occ. eigenvalues --   -0.31395  -0.29830  -0.29504  -0.27773  -0.26127
  Beta  occ. eigenvalues --   -0.25628  -0.23367  -0.18382  -0.17825  -0.16700
  Beta  occ. eigenvalues --   -0.15604  -0.14018  -0.09981  -0.08576
  Beta virt. eigenvalues --    0.06490   0.09930   0.10113   0.10426   0.10686
  Beta virt. eigenvalues --    0.12094   0.12727   0.13320   0.14500   0.14545
  Beta virt. eigenvalues --    0.15259   0.15715   0.16111   0.17057   0.17712
  Beta virt. eigenvalues --    0.17833   0.18691   0.20820   0.22238   0.22597
  Beta virt. eigenvalues --    0.22970   0.23843   0.25043   0.25216   0.25908
  Beta virt. eigenvalues --    0.27683   0.28640   0.29269   0.29600   0.30467
  Beta virt. eigenvalues --    0.31072   0.31104   0.32144   0.32260   0.32872
  Beta virt. eigenvalues --    0.33277   0.33996   0.34949   0.36413   0.36456
  Beta virt. eigenvalues --    0.36879   0.38124   0.38537   0.39441   0.40161
  Beta virt. eigenvalues --    0.40715   0.41236   0.41351   0.41620   0.42346
  Beta virt. eigenvalues --    0.43689   0.44057   0.44769   0.45011   0.45345
  Beta virt. eigenvalues --    0.46388   0.48538   0.50344   0.50922   0.52978
  Beta virt. eigenvalues --    0.53891   0.54273   0.57284   0.59784   0.60665
  Beta virt. eigenvalues --    0.61528   0.65167   0.66443   0.69130   0.73851
  Beta virt. eigenvalues --    0.77007   0.80648   0.81669   0.83314   0.84113
  Beta virt. eigenvalues --    0.85447   0.85888   0.86840   0.89328   0.93970
  Beta virt. eigenvalues --    0.94695   0.96418   0.98947   0.99141   1.01513
  Beta virt. eigenvalues --    1.03021   1.05733   1.06366   1.09668   1.10402
  Beta virt. eigenvalues --    1.13045   1.13078   1.13757   1.15734   1.17653
  Beta virt. eigenvalues --    1.20729   1.21544   1.26009   1.28548   1.30122
  Beta virt. eigenvalues --    1.30638   1.31489   1.31577   1.37966   1.38207
  Beta virt. eigenvalues --    1.39888   1.40779   1.42762   1.43872   1.46706
  Beta virt. eigenvalues --    1.48045   1.48459   1.48627   1.49604   1.50297
  Beta virt. eigenvalues --    1.51192   1.52693   1.56060   1.56176   1.57982
  Beta virt. eigenvalues --    1.58100   1.59752   1.62800   1.63420   1.66302
  Beta virt. eigenvalues --    1.69811   1.73398   1.76132   1.76221   1.79864
  Beta virt. eigenvalues --    1.80650   1.80873   1.84808   1.86626   1.91862
  Beta virt. eigenvalues --    1.93142   1.95279   2.00253   2.01085   2.01869
  Beta virt. eigenvalues --    2.05097   2.05901   2.08663   2.09610   2.09817
  Beta virt. eigenvalues --    2.11196   2.12446   2.14768   2.15332   2.19127
  Beta virt. eigenvalues --    2.23284   2.24970   2.26128   2.26751   2.30133
  Beta virt. eigenvalues --    2.31486   2.32252   2.36384   2.40363   2.43441
  Beta virt. eigenvalues --    2.43630   2.43989   2.50384   2.50986   2.54316
  Beta virt. eigenvalues --    2.57110   2.57471   2.63681   2.64498   2.65149
  Beta virt. eigenvalues --    2.66569   2.70740   2.71269   2.74985   2.77086
  Beta virt. eigenvalues --    2.78613   2.80201   2.80617   2.87406   2.90946
  Beta virt. eigenvalues --    2.91225   2.94131   2.97718   3.00927   3.04291
  Beta virt. eigenvalues --    3.07403   3.12078   3.13037   3.14279   3.19147
  Beta virt. eigenvalues --    3.24492   3.33183   3.34790   3.36579   3.40149
  Beta virt. eigenvalues --    3.43560   3.48009   3.49932   3.54184   3.64419
  Beta virt. eigenvalues --    3.69597   3.81983   4.29250   4.40295   4.43079
  Beta virt. eigenvalues --    4.50006   4.52441   4.56709   4.61868   4.68100
  Beta virt. eigenvalues --    4.75948   4.83392   4.91071   5.15211
     Alpha Molecular Orbital Coefficients:
                           1         2         3         4         5
                           O         O         O         O         O
     Eigenvalues --   -19.18423 -19.12319 -19.04765 -19.02553 -14.30205
   1 1   C  1S         -0.00006  -0.00001   0.00000   0.00000  -0.00001
   2        2S         -0.00002  -0.00002   0.00001   0.00002  -0.00001
   3        2PX        -0.00001  -0.00000   0.00001  -0.00001  -0.00005
   4        2PY        -0.00051  -0.00001  -0.00001   0.00001   0.00009
   5        2PZ         0.00000   0.00000  -0.00000   0.00000  -0.00000
   6        3S          0.00202   0.00025   0.00004  -0.00046  -0.00010
   7        3PX         0.00158   0.00023  -0.00023  -0.00035   0.00071
   8        3PY        -0.00012   0.00010   0.00011  -0.00006   0.00018
   9        3PZ         0.00000  -0.00000   0.00000  -0.00000   0.00000
  10        4S          0.01103   0.02350  -0.00737  -0.00287  -0.01865
  11        4PX         0.02354   0.00324  -0.01247   0.00703  -0.01099
  12        4PY        -0.01324   0.00166   0.00376  -0.00290   0.00403
  13        4PZ         0.00001  -0.00000  -0.00000   0.00000  -0.00000
  14        5XX        -0.00004  -0.00001   0.00000  -0.00004   0.00001
  15        5YY         0.00035  -0.00002  -0.00000   0.00000  -0.00010
  16        5ZZ        -0.00016  -0.00001   0.00000   0.00001  -0.00004
  17        5XY        -0.00001   0.00000   0.00000  -0.00001   0.00002
  18        5XZ         0.00000   0.00000  -0.00000  -0.00000  -0.00000
  19        5YZ        -0.00000   0.00000   0.00000  -0.00000   0.00000
  20 2   O  1S          0.99207  -0.00001   0.00000  -0.00001  -0.00003
  21        2S          0.02603  -0.00002   0.00001  -0.00004   0.00022
  22        2PX         0.00095   0.00000   0.00000  -0.00001   0.00028
  23        2PY         0.00082   0.00000   0.00000  -0.00000  -0.00010
  24        2PZ        -0.00000   0.00000  -0.00000   0.00000   0.00000
  25        3S          0.01842   0.00016  -0.00003   0.00024  -0.00023
  26        3PX        -0.00104  -0.00003   0.00003   0.00007   0.00006
  27        3PY        -0.00116  -0.00001  -0.00003   0.00005   0.00025
  28        3PZ         0.00000  -0.00000   0.00000  -0.00000  -0.00000
  29        4S         -0.02326  -0.00085   0.00062  -0.00114   0.00335
  30        4PX        -0.00419   0.00001   0.00013  -0.00031   0.00043
  31        4PY         0.00152   0.00006   0.00019  -0.00026   0.00056
  32        4PZ        -0.00000   0.00000  -0.00000   0.00000  -0.00000
  33        5XX        -0.00984  -0.00002   0.00001  -0.00002   0.00003
  34        5YY        -0.00989  -0.00001   0.00001  -0.00002   0.00012
  35        5ZZ        -0.00952  -0.00001   0.00001  -0.00003   0.00005
  36        5XY        -0.00001  -0.00001  -0.00000   0.00001   0.00001
  37        5XZ        -0.00000   0.00000  -0.00000   0.00000  -0.00000
  38        5YZ         0.00000   0.00000  -0.00000   0.00000  -0.00000
  39 3   C  1S         -0.00000  -0.00001  -0.00002   0.00001   0.00002
  40        2S          0.00010  -0.00002  -0.00007   0.00003   0.00034
  41        2PX         0.00005  -0.00003  -0.00000  -0.00002  -0.00010
  42        2PY         0.00001   0.00001  -0.00000  -0.00000  -0.00018
  43        2PZ         0.00000   0.00000   0.00000   0.00000   0.00000
  44        3S         -0.00003  -0.00018   0.00046  -0.00066   0.00101
  45        3PX        -0.00081  -0.00025  -0.00019   0.00038  -0.00085
  46        3PY         0.00029   0.00032   0.00030   0.00007  -0.00010
  47        3PZ        -0.00000  -0.00000  -0.00000   0.00000   0.00000
  48        4S         -0.03252   0.00980   0.02139  -0.02524  -0.00353
  49        4PX         0.02610   0.00615  -0.00531   0.00395  -0.01251
  50        4PY        -0.00088   0.00202   0.00444  -0.00642  -0.00755
  51        4PZ         0.00000   0.00000  -0.00000   0.00000   0.00000
  52        5XX        -0.00020  -0.00004  -0.00006  -0.00000  -0.00010
  53        5YY        -0.00002  -0.00003  -0.00003   0.00005  -0.00019
  54        5ZZ        -0.00002  -0.00001  -0.00002   0.00002  -0.00010
  55        5XY        -0.00005  -0.00000  -0.00001   0.00006  -0.00022
  56        5XZ         0.00000   0.00000   0.00000  -0.00000   0.00000
  57        5YZ        -0.00000   0.00000   0.00000   0.00000   0.00000
  58 4   C  1S          0.00002   0.00001  -0.00000  -0.00000  -0.00001
  59        2S          0.00023   0.00004  -0.00000  -0.00007   0.00005
  60        2PX         0.00004   0.00000  -0.00002   0.00003  -0.00001
  61        2PY         0.00005   0.00000   0.00001   0.00003   0.00008
  62        2PZ        -0.00000   0.00000   0.00000  -0.00000  -0.00000
  63        3S         -0.00203  -0.00061  -0.00012   0.00046  -0.00091
  64        3PX         0.00076   0.00005  -0.00004  -0.00028   0.00030
  65        3PY         0.00072   0.00018   0.00004  -0.00055   0.00044
  66        3PZ        -0.00000  -0.00000  -0.00000   0.00000  -0.00000
  67        4S          0.00018  -0.01611   0.00251   0.01218   0.02400
  68        4PX        -0.00173   0.01022  -0.00319   0.00173   0.00010
  69        4PY         0.00035   0.00262  -0.00063  -0.00280  -0.00386
  70        4PZ        -0.00000   0.00000  -0.00000   0.00000   0.00000
  71        5XX        -0.00008   0.00000  -0.00001   0.00007  -0.00001
  72        5YY        -0.00017   0.00001  -0.00000   0.00005  -0.00015
  73        5ZZ         0.00002   0.00002   0.00000   0.00001  -0.00003
  74        5XY        -0.00012  -0.00000   0.00000   0.00003   0.00000
  75        5XZ         0.00000  -0.00000  -0.00000   0.00000   0.00000
  76        5YZ         0.00000   0.00000   0.00000  -0.00000   0.00000
  77 5   H  1S          0.00006   0.00001  -0.00000   0.00004   0.00003
  78        2S         -0.00025  -0.00008   0.00006   0.00051  -0.00018
  79        3PX        -0.00003   0.00000   0.00000   0.00003  -0.00003
  80        3PY        -0.00005  -0.00000  -0.00000   0.00002  -0.00002
  81        3PZ         0.00000   0.00000   0.00000   0.00000   0.00000
  82 6   N  1S         -0.00003  -0.00000  -0.00000   0.00000   0.99204
  83        2S          0.00000  -0.00001  -0.00001   0.00000   0.03675
  84        2PX        -0.00031  -0.00000  -0.00001   0.00001  -0.00065
  85        2PY         0.00014  -0.00000  -0.00001  -0.00000   0.00189
  86        2PZ        -0.00000  -0.00000  -0.00000   0.00000  -0.00000
  87        3S         -0.00016   0.00012   0.00006   0.00009   0.00666
  88        3PX        -0.00012   0.00014   0.00019  -0.00002   0.00067
  89        3PY         0.00020   0.00007   0.00004   0.00003  -0.00184
  90        3PZ        -0.00000   0.00000   0.00000  -0.00000   0.00000
  91        4S          0.02549   0.00140  -0.00009   0.00235  -0.01391
  92        4PX        -0.00509  -0.00101  -0.00026   0.00040  -0.00183
  93        4PY         0.00399   0.00003  -0.00033   0.00120  -0.00059
  94        4PZ        -0.00000  -0.00000  -0.00000   0.00000   0.00000
  95        5XX         0.00038   0.00000  -0.00000  -0.00001  -0.00969
  96        5YY         0.00006   0.00001   0.00001  -0.00001  -0.00978
  97        5ZZ        -0.00009   0.00000  -0.00000   0.00001  -0.00970
  98        5XY        -0.00022   0.00001   0.00001  -0.00001   0.00010
  99        5XZ         0.00000  -0.00000  -0.00000   0.00000  -0.00000
 100        5YZ        -0.00000  -0.00000  -0.00000   0.00000   0.00000
 101 7   C  1S          0.00001  -0.00000   0.00000  -0.00000  -0.00000
 102        2S          0.00014  -0.00001   0.00002  -0.00001  -0.00002
 103        2PX         0.00002  -0.00001  -0.00001  -0.00001   0.00001
 104        2PY        -0.00003   0.00000  -0.00000   0.00001  -0.00002
 105        2PZ         0.00000  -0.00000  -0.00000  -0.00000   0.00000
 106        3S          0.00024   0.00008  -0.00023  -0.00003   0.00040
 107        3PX         0.00022   0.00001  -0.00008   0.00006   0.00014
 108        3PY        -0.00009  -0.00012   0.00011  -0.00003  -0.00004
 109        3PZ        -0.00000   0.00000  -0.00000   0.00000  -0.00000
 110        4S          0.02571  -0.00101  -0.01362   0.01065  -0.00741
 111        4PX         0.00412  -0.00009  -0.00213   0.00196  -0.00090
 112        4PY        -0.00154   0.00015   0.00142  -0.00095   0.00063
 113        4PZ        -0.00000   0.00000  -0.00000   0.00000  -0.00000
 114        5XX        -0.00000  -0.00000  -0.00000   0.00001   0.00000
 115        5YY        -0.00007  -0.00000   0.00001  -0.00001   0.00001
 116        5ZZ         0.00002   0.00000   0.00000  -0.00001  -0.00000
 117        5XY         0.00003  -0.00001   0.00000  -0.00000  -0.00001
 118        5XZ        -0.00000  -0.00000  -0.00000   0.00000   0.00000
 119        5YZ         0.00000   0.00000  -0.00000   0.00000  -0.00000
 120 8   H  1S         -0.00000  -0.00001  -0.00000   0.00000  -0.00000
 121        2S          0.00013   0.00012  -0.00005   0.00004  -0.00012
 122        3PX        -0.00002   0.00000   0.00000   0.00000  -0.00001
 123        3PY        -0.00001  -0.00001   0.00000  -0.00000   0.00001
 124        3PZ         0.00000  -0.00000  -0.00000   0.00000  -0.00000
 125 9   H  1S         -0.00000   0.00001   0.00001   0.00000  -0.00000
 126        2S          0.00030  -0.00016   0.00001  -0.00000  -0.00004
 127        3PX         0.00004  -0.00000   0.00000  -0.00000   0.00000
 128        3PY        -0.00004   0.00000  -0.00000   0.00000   0.00000
 129        3PZ         0.00001  -0.00000   0.00000   0.00000  -0.00000
 130 10  H  1S         -0.00000   0.00001   0.00001   0.00000  -0.00000
 131        2S          0.00030  -0.00016   0.00001  -0.00000  -0.00004
 132        3PX         0.00004  -0.00000   0.00000  -0.00000   0.00000
 133        3PY        -0.00004   0.00000  -0.00000   0.00000   0.00000
 134        3PZ        -0.00001   0.00000  -0.00000  -0.00000   0.00000
 135 11  N  1S         -0.00001   0.00001   0.00002   0.00003  -0.00031
 136        2S         -0.00007   0.00005   0.00007   0.00016   0.00001
 137        2PX        -0.00000   0.00005   0.00005   0.00001   0.00000
 138        2PY         0.00000   0.00001  -0.00002   0.00002  -0.00005
 139        2PZ        -0.00000  -0.00000   0.00000  -0.00000  -0.00000
 140        3S          0.00060  -0.00044  -0.00051  -0.00127   0.00057
 141        3PX        -0.00046  -0.00074  -0.00030  -0.00027   0.00035
 142        3PY         0.00010  -0.00017  -0.00022  -0.00007   0.00060
 143        3PZ         0.00000   0.00000  -0.00000   0.00000   0.00000
 144        4S         -0.00498   0.00002   0.00421   0.00167   0.00601
 145        4PX         0.00130   0.00120   0.00469  -0.00032  -0.00244
 146        4PY         0.00151   0.00019  -0.00129   0.00181  -0.00090
 147        4PZ        -0.00000  -0.00000  -0.00000  -0.00000   0.00000
 148        5XX         0.00003   0.00001   0.00010   0.00017  -0.00009
 149        5YY        -0.00004   0.00004   0.00002  -0.00012   0.00000
 150        5ZZ        -0.00003   0.00003   0.00007   0.00007  -0.00000
 151        5XY        -0.00001  -0.00002  -0.00004   0.00004  -0.00009
 152        5XZ        -0.00000  -0.00000  -0.00000  -0.00000   0.00000
 153        5YZ        -0.00000   0.00000  -0.00000  -0.00000   0.00000
 154 12  H  1S         -0.00003   0.00002   0.00008   0.00007   0.00006
 155        2S          0.00063   0.00011  -0.00056   0.00029  -0.00006
 156        3PX        -0.00000   0.00002  -0.00004  -0.00006  -0.00003
 157        3PY         0.00002   0.00000  -0.00004   0.00003  -0.00003
 158        3PZ         0.00000  -0.00000  -0.00000   0.00000  -0.00000
 159 13  C  1S          0.00000   0.00002   0.00002  -0.00001   0.00001
 160        2S          0.00002   0.00015   0.00015   0.00046   0.00005
 161        2PX        -0.00002  -0.00002  -0.00000  -0.00007  -0.00000
 162        2PY         0.00001   0.00003  -0.00001   0.00026   0.00001
 163        2PZ        -0.00000   0.00000   0.00000   0.00000   0.00000
 164        3S         -0.00018   0.00025  -0.00058  -0.00003  -0.00054
 165        3PX         0.00013   0.00043  -0.00026   0.00007   0.00038
 166        3PY        -0.00031  -0.00107  -0.00047  -0.00160   0.00077
 167        3PZ        -0.00000  -0.00000  -0.00000  -0.00000   0.00000
 168        4S         -0.01373  -0.00744  -0.02009   0.00259   0.00765
 169        4PX        -0.00104   0.01340  -0.00203  -0.00502  -0.00351
 170        4PY         0.00248  -0.00044   0.00561   0.00322  -0.00095
 171        4PZ         0.00000  -0.00000   0.00000   0.00000  -0.00000
 172        5XX         0.00000  -0.00006   0.00005  -0.00014  -0.00002
 173        5YY        -0.00000   0.00001  -0.00003  -0.00060   0.00005
 174        5ZZ         0.00001   0.00002   0.00003  -0.00019   0.00001
 175        5XY         0.00000  -0.00001   0.00009   0.00011   0.00001
 176        5XZ         0.00000   0.00000   0.00000   0.00000   0.00000
 177        5YZ        -0.00000   0.00000  -0.00000  -0.00000   0.00000
 178 14  O  1S         -0.00000   0.00001   0.00007   0.99210   0.00001
 179        2S         -0.00002   0.00008   0.00004   0.02617   0.00005
 180        2PX        -0.00001   0.00004   0.00001   0.00024  -0.00000
 181        2PY        -0.00001   0.00000  -0.00003  -0.00141  -0.00001
 182        2PZ        -0.00000   0.00000  -0.00000  -0.00000   0.00000
 183        3S          0.00020  -0.00030   0.00002   0.01833  -0.00037
 184        3PX         0.00002  -0.00000  -0.00002  -0.00007  -0.00010
 185        3PY        -0.00004  -0.00014   0.00001   0.00028   0.00014
 186        3PZ        -0.00000  -0.00000   0.00000   0.00000   0.00000
 187        4S         -0.00000   0.00371   0.00089  -0.00946  -0.00035
 188        4PX         0.00013   0.00092   0.00007   0.00049  -0.00002
 189        4PY        -0.00011  -0.00099  -0.00060   0.00031  -0.00003
 190        4PZ         0.00000   0.00000  -0.00000   0.00000   0.00000
 191        5XX        -0.00001   0.00013   0.00000  -0.00949   0.00002
 192        5YY        -0.00000   0.00007   0.00004  -0.00935   0.00001
 193        5ZZ         0.00000   0.00009   0.00003  -0.00944   0.00004
 194        5XY        -0.00000   0.00001   0.00003  -0.00005   0.00002
 195        5XZ        -0.00000  -0.00000   0.00000  -0.00000   0.00000
 196        5YZ        -0.00000  -0.00000  -0.00000   0.00000  -0.00000
 197 15  C  1S          0.00000  -0.00005  -0.00002   0.00001  -0.00000
 198        2S          0.00001   0.00018   0.00040   0.00012  -0.00001
 199        2PX         0.00003   0.00036   0.00006   0.00002   0.00000
 200        2PY         0.00000   0.00030  -0.00026   0.00002  -0.00001
 201        2PZ        -0.00000   0.00000  -0.00000  -0.00000  -0.00000
 202        3S         -0.00016   0.00047   0.00067  -0.00058   0.00047
 203        3PX        -0.00004   0.00065   0.00031   0.00023  -0.00009
 204        3PY        -0.00000  -0.00105   0.00123   0.00046  -0.00043
 205        3PZ         0.00000  -0.00000   0.00000   0.00000  -0.00000
 206        4S          0.00535  -0.00751   0.01798   0.00367   0.00151
 207        4PX        -0.00085   0.00082  -0.00479  -0.00023  -0.00016
 208        4PY         0.00091   0.00053  -0.00220  -0.00038   0.00041
 209        4PZ         0.00000  -0.00000   0.00000   0.00000   0.00000
 210        5XX         0.00000   0.00004  -0.00013   0.00003   0.00000
 211        5YY         0.00001   0.00005  -0.00061  -0.00006   0.00001
 212        5ZZ        -0.00000  -0.00018  -0.00022   0.00002  -0.00001
 213        5XY         0.00000   0.00015   0.00010   0.00009  -0.00000
 214        5XZ        -0.00000  -0.00000   0.00000   0.00000  -0.00000
 215        5YZ         0.00000   0.00000  -0.00000  -0.00000   0.00000
 216 16  O  1S          0.00000  -0.00001   0.99211  -0.00005   0.00001
 217        2S          0.00001   0.00021   0.02621   0.00004   0.00005
 218        2PX         0.00000   0.00001  -0.00023  -0.00002  -0.00000
 219        2PY         0.00000   0.00001   0.00139   0.00002   0.00001
 220        2PZ         0.00000   0.00000   0.00000   0.00000  -0.00000
 221        3S         -0.00002  -0.00108   0.01802   0.00006  -0.00040
 222        3PX        -0.00002  -0.00009  -0.00016   0.00009   0.00004
 223        3PY        -0.00002  -0.00039  -0.00047   0.00005  -0.00016
 224        3PZ        -0.00000  -0.00000  -0.00000  -0.00000  -0.00000
 225        4S          0.00025  -0.00027  -0.01051   0.00056  -0.00015
 226        4PX         0.00011   0.00045   0.00121  -0.00044   0.00014
 227        4PY         0.00007  -0.00021  -0.00041   0.00007  -0.00003
 228        4PZ         0.00000   0.00000  -0.00000   0.00000  -0.00000
 229        5XX        -0.00000   0.00009  -0.00947  -0.00000   0.00003
 230        5YY         0.00000  -0.00004  -0.00935   0.00005   0.00002
 231        5ZZ         0.00001   0.00013  -0.00942   0.00003   0.00003
 232        5XY         0.00000  -0.00007  -0.00006   0.00002   0.00001
 233        5XZ        -0.00000  -0.00000  -0.00000   0.00000   0.00000
 234        5YZ        -0.00000  -0.00000   0.00000  -0.00000  -0.00000
 235 17  O  1S          0.00000   0.99211   0.00008   0.00006   0.00000
 236        2S         -0.00000   0.02630   0.00017   0.00015  -0.00000
 237        2PX        -0.00001   0.00035   0.00001  -0.00002  -0.00000
 238        2PY        -0.00001  -0.00122  -0.00001   0.00001   0.00000
 239        2PZ         0.00000  -0.00000  -0.00000   0.00000   0.00000
 240        3S          0.00003   0.01736  -0.00085  -0.00087   0.00009
 241        3PX         0.00007  -0.00048   0.00003   0.00005   0.00001
 242        3PY         0.00001   0.00108   0.00023   0.00010  -0.00001
 243        3PZ        -0.00000   0.00000   0.00000  -0.00000  -0.00000
 244        4S          0.00008  -0.00788   0.00020   0.00113  -0.00005
 245        4PX        -0.00030   0.00276   0.00056  -0.00064  -0.00002
 246        4PY        -0.00015  -0.00109  -0.00015   0.00005   0.00008
 247        4PZ         0.00000  -0.00000  -0.00000   0.00000   0.00000
 248        5XX         0.00000  -0.00952   0.00019   0.00013  -0.00000
 249        5YY        -0.00000  -0.00963  -0.00009   0.00010  -0.00000
 250        5ZZ        -0.00001  -0.00942   0.00009   0.00013   0.00001
 251        5XY        -0.00001  -0.00009   0.00001  -0.00004  -0.00000
 252        5XZ        -0.00000   0.00000  -0.00000  -0.00000  -0.00000
 253        5YZ         0.00000  -0.00000  -0.00000   0.00000  -0.00000
 254 18  H  1S         -0.00001   0.00051   0.00008  -0.00001  -0.00001
 255        2S         -0.00005  -0.00162  -0.00010   0.00018   0.00001
 256        3PX         0.00001   0.00003   0.00000   0.00001   0.00000
 257        3PY         0.00000  -0.00003  -0.00006  -0.00001  -0.00000
 258        3PZ        -0.00000  -0.00000  -0.00000  -0.00000  -0.00000
                           6         7         8         9        10
                           O         O         O         O         O
     Eigenvalues --   -14.28988 -10.20228 -10.19304 -10.18565 -10.17056
   1 1   C  1S          0.00000   0.99197   0.00004  -0.00000  -0.00555
   2        2S          0.00000   0.05762  -0.00008   0.00004  -0.00051
   3        2PX        -0.00003  -0.00013  -0.00001  -0.00002   0.00015
   4        2PY         0.00001  -0.00129   0.00002   0.00001  -0.00004
   5        2PZ        -0.00000   0.00000   0.00000   0.00000   0.00000
   6        3S         -0.00047  -0.01924   0.00058  -0.00204   0.00533
   7        3PX         0.00023  -0.00142   0.00058   0.00045  -0.00535
   8        3PY        -0.00031   0.00050  -0.00048   0.00058   0.00395
   9        3PZ         0.00000  -0.00000   0.00000  -0.00000  -0.00000
  10        4S         -0.00254  -0.01699   0.01361  -0.01938   0.03253
  11        4PX         0.00456   0.00196   0.01281  -0.00260  -0.02414
  12        4PY        -0.00267  -0.00272  -0.00459  -0.00039   0.01666
  13        4PZ         0.00000   0.00000   0.00000  -0.00000  -0.00001
  14        5XX        -0.00000  -0.01216  -0.00001   0.00007  -0.00005
  15        5YY         0.00001  -0.01187  -0.00000  -0.00001  -0.00016
  16        5ZZ        -0.00001  -0.01238  -0.00003   0.00002  -0.00001
  17        5XY         0.00000  -0.00004  -0.00000  -0.00003   0.00003
  18        5XZ         0.00000  -0.00000   0.00000   0.00000  -0.00000
  19        5YZ        -0.00000  -0.00000  -0.00000   0.00000   0.00000
  20 2   O  1S          0.00000  -0.00000  -0.00000  -0.00001  -0.00006
  21        2S          0.00001   0.00042  -0.00001  -0.00010  -0.00032
  22        2PX         0.00000  -0.00000  -0.00001   0.00003  -0.00001
  23        2PY        -0.00001   0.00012  -0.00000  -0.00003  -0.00004
  24        2PZ         0.00000  -0.00000   0.00000   0.00000   0.00000
  25        3S         -0.00020  -0.00070  -0.00009   0.00049   0.00184
  26        3PX        -0.00006   0.00021  -0.00004  -0.00006   0.00042
  27        3PY         0.00001  -0.00085  -0.00008   0.00054   0.00067
  28        3PZ        -0.00000   0.00000  -0.00000  -0.00000  -0.00000
  29        4S         -0.00045   0.00591  -0.00099  -0.00018  -0.00302
  30        4PX        -0.00019   0.00057  -0.00015   0.00029  -0.00240
  31        4PY         0.00013   0.00594  -0.00072   0.00052   0.00105
  32        4PZ         0.00000  -0.00000   0.00000   0.00000   0.00000
  33        5XX         0.00002   0.00035  -0.00001   0.00002  -0.00018
  34        5YY         0.00001  -0.00028  -0.00002   0.00001  -0.00003
  35        5ZZ        -0.00000   0.00041  -0.00002  -0.00008  -0.00022
  36        5XY        -0.00001  -0.00004  -0.00001   0.00004   0.00003
  37        5XZ         0.00000   0.00000   0.00000  -0.00000  -0.00000
  38        5YZ        -0.00000   0.00000   0.00000  -0.00000  -0.00000
  39 3   C  1S          0.00000   0.00000  -0.00012   0.99196   0.00000
  40        2S          0.00010  -0.00003  -0.00004   0.05815  -0.00009
  41        2PX         0.00038   0.00001  -0.00007   0.00039   0.00004
  42        2PY        -0.00007   0.00003   0.00002  -0.00042  -0.00003
  43        2PZ        -0.00000  -0.00000  -0.00000  -0.00000   0.00000
  44        3S          0.00033  -0.00176  -0.00021  -0.01923  -0.00076
  45        3PX         0.00087  -0.00097   0.00112   0.00079  -0.00224
  46        3PY        -0.00013   0.00062   0.00042  -0.00153  -0.00052
  47        3PZ         0.00000   0.00000  -0.00000   0.00000  -0.00000
  48        4S          0.00208  -0.00634  -0.00565  -0.06231   0.00955
  49        4PX         0.00366   0.00439   0.01208  -0.00494  -0.00774
  50        4PY         0.00202   0.00063  -0.00037  -0.01690  -0.00184
  51        4PZ         0.00000  -0.00000   0.00000   0.00001  -0.00000
  52        5XX         0.00024   0.00010  -0.00001  -0.01191  -0.00004
  53        5YY        -0.00001   0.00003  -0.00005  -0.01220   0.00000
  54        5ZZ        -0.00008   0.00001  -0.00003  -0.01250  -0.00004
  55        5XY        -0.00004  -0.00003  -0.00003   0.00012   0.00002
  56        5XZ        -0.00000   0.00000  -0.00000  -0.00000   0.00000
  57        5YZ        -0.00000  -0.00000   0.00000  -0.00000  -0.00000
  58 4   C  1S         -0.00001   0.00511   0.00001   0.00451  -0.00010
  59        2S          0.00001   0.00008   0.00002   0.00022  -0.00000
  60        2PX         0.00002   0.00004   0.00001   0.00007  -0.00005
  61        2PY         0.00000   0.00005  -0.00003   0.00004   0.00001
  62        2PZ         0.00000   0.00000   0.00000  -0.00000  -0.00000
  63        3S          0.00052   0.00396  -0.00022   0.00320   0.00065
  64        3PX        -0.00026  -0.00240  -0.00002   0.00096   0.00066
  65        3PY        -0.00027  -0.00065   0.00025  -0.00250  -0.00133
  66        3PZ         0.00000  -0.00000  -0.00000   0.00000   0.00000
  67        4S         -0.00351   0.01263  -0.00840   0.05610   0.00077
  68        4PX        -0.00108  -0.00806   0.00440   0.00662   0.00387
  69        4PY         0.00072  -0.00172   0.00176  -0.00898  -0.00259
  70        4PZ        -0.00000  -0.00000   0.00000   0.00001   0.00000
  71        5XX        -0.00006  -0.00009  -0.00002  -0.00002  -0.00002
  72        5YY        -0.00002  -0.00022   0.00003  -0.00015   0.00006
  73        5ZZ        -0.00001  -0.00013  -0.00000  -0.00007  -0.00001
  74        5XY         0.00002  -0.00002   0.00000  -0.00002   0.00007
  75        5XZ        -0.00000  -0.00000  -0.00000   0.00000  -0.00000
  76        5YZ         0.00000   0.00000  -0.00000   0.00000  -0.00000
  77 5   H  1S          0.00001   0.00001   0.00001   0.00005   0.00006
  78        2S          0.00013  -0.00016  -0.00037   0.00022   0.00038
  79        3PX         0.00002   0.00005  -0.00000  -0.00007  -0.00002
  80        3PY        -0.00001  -0.00004   0.00002  -0.00000   0.00003
  81        3PZ         0.00000   0.00000  -0.00000  -0.00000  -0.00000
  82 6   N  1S          0.00031  -0.00001  -0.00001  -0.00017  -0.00003
  83        2S          0.00006  -0.00009  -0.00006   0.00008  -0.00010
  84        2PX        -0.00001  -0.00004  -0.00001  -0.00000   0.00005
  85        2PY        -0.00002   0.00003  -0.00001  -0.00002  -0.00003
  86        2PZ         0.00000  -0.00000   0.00000   0.00000   0.00000
  87        3S          0.00013   0.00029   0.00065   0.00104  -0.00005
  88        3PX        -0.00031   0.00076   0.00017  -0.00014  -0.00028
  89        3PY         0.00013   0.00013   0.00049   0.00017  -0.00026
  90        3PZ        -0.00000  -0.00000  -0.00000  -0.00000  -0.00000
  91        4S          0.00157  -0.00186   0.00354  -0.00226   0.00497
  92        4PX         0.00014  -0.00487   0.00141  -0.00256  -0.00350
  93        4PY        -0.00009  -0.00272   0.00049   0.00209   0.00140
  94        4PZ        -0.00000   0.00000  -0.00000  -0.00000  -0.00000
  95        5XX        -0.00012  -0.00007  -0.00002  -0.00004  -0.00003
  96        5YY         0.00001   0.00007   0.00003  -0.00018  -0.00009
  97        5ZZ         0.00001  -0.00007  -0.00004   0.00014  -0.00008
  98        5XY        -0.00006  -0.00001   0.00003  -0.00013  -0.00002
  99        5XZ         0.00000   0.00000  -0.00000   0.00000   0.00000
 100        5YZ         0.00000  -0.00000  -0.00000   0.00000   0.00000
 101 7   C  1S         -0.00001   0.00531  -0.00002  -0.00004   0.99196
 102        2S         -0.00004   0.00016  -0.00004  -0.00010   0.05797
 103        2PX         0.00000  -0.00004   0.00000  -0.00001   0.00004
 104        2PY        -0.00001  -0.00005   0.00001  -0.00001  -0.00004
 105        2PZ         0.00000   0.00000  -0.00000  -0.00000  -0.00000
 106        3S          0.00044   0.00280   0.00050   0.00084  -0.02155
 107        3PX         0.00025   0.00108   0.00024   0.00038  -0.00335
 108        3PY         0.00000   0.00035  -0.00018  -0.00038   0.00154
 109        3PZ        -0.00000  -0.00000   0.00000   0.00000  -0.00000
 110        4S          0.00716   0.00519   0.01284   0.00544  -0.04942
 111        4PX         0.00131   0.00038   0.00208   0.00155  -0.00958
 112        4PY        -0.00058  -0.00051  -0.00106  -0.00032   0.00411
 113        4PZ         0.00000  -0.00000   0.00000   0.00000  -0.00000
 114        5XX         0.00001  -0.00029   0.00000  -0.00002  -0.01245
 115        5YY        -0.00001  -0.00021  -0.00002  -0.00002  -0.01216
 116        5ZZ        -0.00001  -0.00016  -0.00001  -0.00004  -0.01213
 117        5XY        -0.00001   0.00010  -0.00001  -0.00003   0.00015
 118        5XZ         0.00000  -0.00000   0.00000   0.00000  -0.00000
 119        5YZ        -0.00000  -0.00000   0.00000  -0.00000  -0.00000
 120 8   H  1S         -0.00002  -0.00011  -0.00001  -0.00003   0.00001
 121        2S         -0.00004  -0.00075   0.00011   0.00008   0.00309
 122        3PX        -0.00000   0.00002  -0.00000  -0.00001   0.00008
 123        3PY         0.00000   0.00000  -0.00001  -0.00000   0.00008
 124        3PZ        -0.00000  -0.00000   0.00000   0.00000  -0.00000
 125 9   H  1S         -0.00001  -0.00006  -0.00001  -0.00002   0.00005
 126        2S          0.00003  -0.00021   0.00003  -0.00011   0.00302
 127        3PX        -0.00000   0.00001  -0.00000  -0.00000   0.00003
 128        3PY        -0.00000  -0.00001   0.00000   0.00001  -0.00006
 129        3PZ         0.00000   0.00003   0.00000   0.00000  -0.00009
 130 10  H  1S         -0.00001  -0.00006  -0.00001  -0.00002   0.00005
 131        2S          0.00003  -0.00021   0.00003  -0.00011   0.00302
 132        3PX        -0.00000   0.00001  -0.00000  -0.00000   0.00003
 133        3PY        -0.00000  -0.00001   0.00000   0.00001  -0.00006
 134        3PZ        -0.00000  -0.00003  -0.00000  -0.00000   0.00009
 135 11  N  1S          0.99189  -0.00003  -0.00002  -0.00010  -0.00002
 136        2S          0.03727  -0.00013  -0.00012   0.00011  -0.00012
 137        2PX        -0.00019   0.00003  -0.00002  -0.00005   0.00002
 138        2PY         0.00001  -0.00000   0.00001  -0.00004  -0.00001
 139        2PZ        -0.00000   0.00000  -0.00000  -0.00000  -0.00000
 140        3S          0.00658   0.00133   0.00061   0.00123   0.00138
 141        3PX         0.00060  -0.00063   0.00033   0.00122  -0.00099
 142        3PY        -0.00046  -0.00007   0.00048   0.00069   0.00028
 143        3PZ        -0.00000  -0.00000   0.00000  -0.00000   0.00000
 144        4S         -0.00595   0.00308  -0.00350   0.01274   0.00116
 145        4PX         0.00029  -0.00495   0.00037  -0.01650  -0.00020
 146        4PY        -0.00127  -0.00219   0.00323   0.00226  -0.00083
 147        4PZ        -0.00000   0.00000  -0.00000   0.00000   0.00000
 148        5XX        -0.01017  -0.00004  -0.00004  -0.00037   0.00002
 149        5YY        -0.01010  -0.00005   0.00002   0.00005  -0.00006
 150        5ZZ        -0.00993  -0.00007  -0.00010   0.00011  -0.00005
 151        5XY        -0.00006  -0.00001   0.00003   0.00010  -0.00001
 152        5XZ         0.00000   0.00000  -0.00000   0.00000  -0.00000
 153        5YZ        -0.00000  -0.00000   0.00000  -0.00000   0.00000
 154 12  H  1S          0.00039   0.00002  -0.00007  -0.00004   0.00001
 155        2S         -0.00107  -0.00045   0.00053   0.00027   0.00021
 156        3PX        -0.00004   0.00003  -0.00005  -0.00007   0.00002
 157        3PY         0.00008  -0.00000   0.00000   0.00005   0.00002
 158        3PZ         0.00000  -0.00000  -0.00000   0.00000   0.00000
 159 13  C  1S          0.00001  -0.00003   0.00501  -0.00032  -0.00013
 160        2S          0.00011  -0.00004   0.00009  -0.00014  -0.00004
 161        2PX        -0.00029   0.00000  -0.00009   0.00006   0.00002
 162        2PY        -0.00026  -0.00002  -0.00002   0.00006   0.00000
 163        2PZ        -0.00000  -0.00000  -0.00000  -0.00000   0.00000
 164        3S          0.00001   0.00010   0.00308   0.00046   0.00004
 165        3PX        -0.00050  -0.00007   0.00359  -0.00055  -0.00008
 166        3PY        -0.00019   0.00004   0.00023   0.00282  -0.00021
 167        3PZ         0.00000   0.00000  -0.00000   0.00000  -0.00000
 168        4S          0.00343   0.00411   0.01805   0.04254  -0.00194
 169        4PX         0.00204  -0.00127   0.01608   0.00710  -0.00320
 170        4PY        -0.00057   0.00008  -0.00123  -0.00756   0.00046
 171        4PZ        -0.00000  -0.00000  -0.00000  -0.00000  -0.00000
 172        5XX         0.00011  -0.00007  -0.00014  -0.00005  -0.00002
 173        5YY         0.00016  -0.00003  -0.00016   0.00005   0.00000
 174        5ZZ        -0.00010  -0.00003  -0.00015  -0.00007  -0.00002
 175        5XY         0.00013   0.00002  -0.00001  -0.00004   0.00000
 176        5XZ         0.00000   0.00000  -0.00000  -0.00000   0.00000
 177        5YZ         0.00000  -0.00000   0.00000   0.00000  -0.00000
 178 14  O  1S          0.00001   0.00000  -0.00002   0.00002  -0.00000
 179        2S          0.00008   0.00001  -0.00009   0.00013  -0.00001
 180        2PX        -0.00001   0.00000  -0.00001   0.00002  -0.00001
 181        2PY         0.00001   0.00001   0.00001  -0.00001   0.00000
 182        2PZ         0.00000  -0.00000   0.00000   0.00000  -0.00000
 183        3S         -0.00024  -0.00012   0.00012  -0.00129   0.00011
 184        3PX         0.00016   0.00008  -0.00041  -0.00013   0.00005
 185        3PY         0.00016  -0.00011  -0.00001   0.00075  -0.00004
 186        3PZ         0.00000   0.00000   0.00000   0.00000   0.00000
 187        4S          0.00096   0.00072  -0.00149  -0.00398   0.00003
 188        4PX        -0.00028  -0.00091  -0.00100   0.00042   0.00004
 189        4PY        -0.00042  -0.00006   0.00033   0.00143  -0.00019
 190        4PZ        -0.00000  -0.00000   0.00000   0.00000  -0.00000
 191        5XX         0.00003   0.00001  -0.00005   0.00002  -0.00000
 192        5YY        -0.00008   0.00002   0.00001  -0.00003   0.00000
 193        5ZZ         0.00006  -0.00002  -0.00012   0.00007  -0.00001
 194        5XY        -0.00006   0.00001   0.00006  -0.00000  -0.00000
 195        5XZ        -0.00000   0.00000  -0.00000  -0.00000   0.00000
 196        5YZ        -0.00000   0.00000   0.00000  -0.00000  -0.00000
 197 15  C  1S          0.00000  -0.00007   0.99195   0.00009   0.00000
 198        2S          0.00010  -0.00008   0.05819  -0.00006  -0.00004
 199        2PX         0.00003   0.00006   0.00134   0.00002   0.00001
 200        2PY        -0.00002  -0.00001  -0.00025  -0.00000   0.00000
 201        2PZ        -0.00000  -0.00000  -0.00000  -0.00000  -0.00000
 202        3S          0.00003   0.00026  -0.01602   0.00068   0.00017
 203        3PX         0.00018  -0.00071   0.00130  -0.00168  -0.00017
 204        3PY         0.00090  -0.00011  -0.00246  -0.00037  -0.00013
 205        3PZ         0.00000   0.00000  -0.00000   0.00000   0.00000
 206        4S         -0.00478  -0.00106  -0.03295  -0.02797   0.00540
 207        4PX         0.00118   0.00058   0.00650   0.00611  -0.00111
 208        4PY        -0.00034   0.00008  -0.00467  -0.00282   0.00045
 209        4PZ        -0.00000  -0.00000  -0.00000  -0.00000   0.00000
 210        5XX        -0.00011  -0.00002  -0.01249  -0.00001  -0.00001
 211        5YY        -0.00001  -0.00003  -0.01159  -0.00008  -0.00001
 212        5ZZ        -0.00000  -0.00004  -0.01265  -0.00003  -0.00002
 213        5XY        -0.00002  -0.00002   0.00019   0.00000  -0.00001
 214        5XZ         0.00000  -0.00000   0.00000   0.00000  -0.00000
 215        5YZ        -0.00000   0.00000   0.00000  -0.00000   0.00000
 216 16  O  1S          0.00001   0.00000  -0.00009   0.00004  -0.00000
 217        2S          0.00001   0.00002   0.00066   0.00017  -0.00001
 218        2PX        -0.00002   0.00001  -0.00005  -0.00002   0.00000
 219        2PY        -0.00000   0.00001   0.00010  -0.00001  -0.00000
 220        2PZ         0.00000   0.00000   0.00000   0.00000  -0.00000
 221        3S          0.00020  -0.00019  -0.00330  -0.00119   0.00002
 222        3PX        -0.00004   0.00004   0.00034   0.00025   0.00003
 223        3PY         0.00012  -0.00002  -0.00140   0.00014  -0.00002
 224        3PZ         0.00000  -0.00000  -0.00000  -0.00000   0.00000
 225        4S          0.00107   0.00119   0.00508   0.00473  -0.00035
 226        4PX        -0.00030  -0.00022  -0.00186  -0.00199   0.00008
 227        4PY         0.00029   0.00038   0.00229   0.00073  -0.00003
 228        4PZ         0.00000   0.00000   0.00000   0.00000  -0.00000
 229        5XX         0.00001   0.00001   0.00046   0.00014  -0.00001
 230        5YY         0.00002   0.00002  -0.00009   0.00015  -0.00001
 231        5ZZ         0.00004  -0.00000   0.00055   0.00006  -0.00001
 232        5XY         0.00000   0.00002   0.00009   0.00003   0.00000
 233        5XZ         0.00000   0.00000   0.00000  -0.00000   0.00000
 234        5YZ        -0.00000  -0.00000  -0.00000   0.00000  -0.00000
 235 17  O  1S          0.00001   0.00000  -0.00002  -0.00000  -0.00000
 236        2S          0.00007   0.00000   0.00038  -0.00003  -0.00001
 237        2PX        -0.00001  -0.00001  -0.00002  -0.00001   0.00000
 238        2PY        -0.00001   0.00001  -0.00000   0.00003   0.00001
 239        2PZ        -0.00000   0.00000   0.00000   0.00000  -0.00000
 240        3S         -0.00056   0.00003  -0.00058   0.00040   0.00007
 241        3PX         0.00016  -0.00001   0.00026  -0.00003  -0.00005
 242        3PY         0.00010  -0.00013   0.00048  -0.00032  -0.00005
 243        3PZ        -0.00000  -0.00000   0.00000  -0.00000  -0.00000
 244        4S         -0.00024   0.00056   0.00665   0.00132  -0.00001
 245        4PX         0.00000  -0.00054  -0.00110   0.00032  -0.00015
 246        4PY         0.00010   0.00007  -0.00185  -0.00011   0.00011
 247        4PZ        -0.00000   0.00000  -0.00000   0.00000   0.00000
 248        5XX         0.00003   0.00001   0.00003  -0.00001  -0.00000
 249        5YY         0.00006   0.00003  -0.00010   0.00004   0.00000
 250        5ZZ         0.00003   0.00000   0.00041  -0.00001  -0.00001
 251        5XY        -0.00000   0.00001  -0.00039   0.00001   0.00001
 252        5XZ         0.00000  -0.00000  -0.00000   0.00000  -0.00000
 253        5YZ         0.00000   0.00000  -0.00000   0.00000   0.00000
 254 18  H  1S         -0.00000  -0.00002   0.00015  -0.00003  -0.00001
 255        2S          0.00004   0.00017  -0.00133  -0.00020   0.00012
 256        3PX         0.00000  -0.00000  -0.00002  -0.00000  -0.00000
 257        3PY         0.00000   0.00000  -0.00006  -0.00002   0.00000
 258        3PZ         0.00000  -0.00000  -0.00000   0.00000  -0.00000
                          11        12        13        14        15
                           O         O         O         O         O
     Eigenvalues --   -10.16766 -10.12920  -1.03583  -0.97284  -0.89178
   1 1   C  1S         -0.00000  -0.00547   0.07034   0.00060   0.00387
   2        2S         -0.00009  -0.00052  -0.12483  -0.00077  -0.00715
   3        2PX        -0.00003  -0.00016  -0.01940   0.00025   0.00374
   4        2PY        -0.00000  -0.00006   0.10126   0.00075   0.00814
   5        2PZ         0.00000   0.00000  -0.00005  -0.00000  -0.00000
   6        3S          0.00034   0.00817  -0.03269   0.00354   0.00527
   7        3PX         0.00013   0.00549   0.02593   0.00038  -0.00151
   8        3PY        -0.00089   0.00003  -0.03154   0.00255   0.00056
   9        3PZ         0.00000   0.00000   0.00001  -0.00000  -0.00000
  10        4S          0.01208  -0.03640  -0.39004   0.23573   0.09278
  11        4PX         0.01916   0.01416  -0.59133  -0.02415   0.04978
  12        4PY        -0.00707  -0.01014   0.14483   0.04449  -0.00384
  13        4PZ         0.00000   0.00000  -0.00007  -0.00004   0.00001
  14        5XX        -0.00003  -0.00020   0.00696   0.00011   0.00093
  15        5YY         0.00001  -0.00003  -0.01650  -0.00017  -0.00129
  16        5ZZ        -0.00004   0.00001   0.01068   0.00015   0.00061
  17        5XY         0.00000   0.00001   0.00340   0.00006   0.00009
  18        5XZ        -0.00000  -0.00000  -0.00000   0.00000   0.00000
  19        5YZ        -0.00000   0.00000   0.00001   0.00000   0.00000
  20 2   O  1S          0.00000   0.00001   0.18518   0.00164   0.01226
  21        2S          0.00001   0.00003  -0.39883  -0.00325  -0.02715
  22        2PX        -0.00000   0.00004  -0.09517  -0.00041   0.00032
  23        2PY         0.00002   0.00006  -0.06619  -0.00056  -0.00575
  24        2PZ        -0.00000   0.00000   0.00002   0.00000   0.00000
  25        3S         -0.00008  -0.00049  -0.42884  -0.00408  -0.03035
  26        3PX         0.00003  -0.00024  -0.05838  -0.00153  -0.00144
  27        3PY        -0.00034  -0.00072  -0.03861  -0.00106  -0.00473
  28        3PZ         0.00000   0.00000   0.00001  -0.00000   0.00000
  29        4S         -0.00358  -0.00478   0.20989  -0.00225  -0.00373
  30        4PX        -0.00110  -0.00208   0.08585   0.00342   0.00067
  31        4PY        -0.00101   0.00121  -0.00983   0.00346  -0.00143
  32        4PZ         0.00000   0.00000   0.00001   0.00000  -0.00000
  33        5XX         0.00001   0.00008  -0.00974  -0.00011   0.00041
  34        5YY        -0.00002   0.00004  -0.00150   0.00011  -0.00051
  35        5ZZ         0.00001  -0.00002   0.01380   0.00029   0.00058
  36        5XY        -0.00004  -0.00001   0.00054  -0.00006   0.00015
  37        5XZ         0.00000   0.00000  -0.00000  -0.00000  -0.00000
  38        5YZ         0.00000  -0.00000   0.00001   0.00000   0.00000
  39 3   C  1S          0.00027  -0.00470   0.03927  -0.00260  -0.03178
  40        2S         -0.00013  -0.00023  -0.07176   0.00543   0.05860
  41        2PX         0.00001   0.00007   0.04627   0.00361   0.03488
  42        2PY        -0.00000  -0.00009   0.02693  -0.00016  -0.00279
  43        2PZ         0.00000  -0.00000  -0.00001  -0.00000  -0.00000
  44        3S          0.00038   0.00505  -0.00914  -0.01786   0.00057
  45        3PX         0.00110  -0.00549   0.00909  -0.01961  -0.01938
  46        3PY         0.00123   0.00408   0.00483   0.01134   0.01482
  47        3PZ        -0.00000  -0.00000   0.00000  -0.00000  -0.00000
  48        4S          0.00072  -0.06785   0.25067   0.13942   0.00115
  49        4PX         0.01762   0.01186  -0.29265   0.01000   0.02462
  50        4PY         0.00032  -0.01315  -0.01844   0.02581   0.00570
  51        4PZ        -0.00000   0.00001  -0.00001   0.00002  -0.00002
  52        5XX         0.00001  -0.00014  -0.00390  -0.00042   0.00420
  53        5YY        -0.00005  -0.00002  -0.00105  -0.00026  -0.00214
  54        5ZZ        -0.00006   0.00009   0.00563  -0.00017  -0.00437
  55        5XY        -0.00006   0.00008  -0.00497  -0.00006  -0.00004
  56        5XZ         0.00000  -0.00000   0.00000   0.00000  -0.00000
  57        5YZ         0.00000   0.00000   0.00000   0.00000  -0.00000
  58 4   C  1S         -0.00003   0.99191   0.02477  -0.00026  -0.00737
  59        2S          0.00002   0.05814  -0.04245   0.00144   0.01244
  60        2PX         0.00002  -0.00021   0.01761   0.00078   0.00925
  61        2PY         0.00004  -0.00051   0.03117  -0.00025  -0.00547
  62        2PZ        -0.00000   0.00000  -0.00001   0.00000   0.00000
  63        3S         -0.00014  -0.02448  -0.04209  -0.01305   0.00126
  64        3PX        -0.00100   0.00241   0.00112   0.00127   0.00564
  65        3PY        -0.00018   0.00759   0.03113   0.00673   0.00653
  66        3PZ         0.00000  -0.00000  -0.00001  -0.00000  -0.00000
  67        4S         -0.01889   0.06830   0.65564  -0.16517  -0.13277
  68        4PX        -0.00041   0.00517  -0.10566   0.09621  -0.00439
  69        4PY         0.00286  -0.01226  -0.08315   0.02690   0.02102
  70        4PZ        -0.00000   0.00001   0.00002   0.00002  -0.00000
  71        5XX        -0.00006  -0.01237  -0.00162   0.00018   0.00064
  72        5YY        -0.00004  -0.01205  -0.00226   0.00007   0.00065
  73        5ZZ        -0.00000  -0.01244   0.00309   0.00014  -0.00093
  74        5XY         0.00001   0.00024  -0.00224  -0.00016  -0.00124
  75        5XZ        -0.00000  -0.00000   0.00000   0.00000   0.00000
  76        5YZ        -0.00000  -0.00000   0.00000   0.00000  -0.00000
  77 5   H  1S          0.00004  -0.00038  -0.00419   0.00027   0.00428
  78        2S          0.00037  -0.00139  -0.01231  -0.00236  -0.00216
  79        3PX        -0.00000   0.00006   0.00047   0.00005   0.00056
  80        3PY        -0.00002   0.00023   0.00049  -0.00003  -0.00028
  81        3PZ         0.00000  -0.00000   0.00000   0.00000   0.00000
  82 6   N  1S         -0.00003   0.00002   0.08623  -0.00016  -0.00724
  83        2S         -0.00014   0.00002  -0.17009  -0.00032   0.01349
  84        2PX        -0.00003  -0.00002   0.07730   0.00151   0.01508
  85        2PY        -0.00002   0.00006  -0.07384   0.00023   0.00805
  86        2PZ         0.00000  -0.00000   0.00003  -0.00000  -0.00000
  87        3S          0.00142  -0.00071  -0.12221   0.00566   0.02285
  88        3PX         0.00066   0.00052   0.00974   0.00371   0.00893
  89        3PY         0.00073  -0.00087  -0.01648   0.00090   0.00618
  90        3PZ        -0.00000   0.00000   0.00001  -0.00000  -0.00000
  91        4S          0.01149   0.00555  -0.23404  -0.02079  -0.00931
  92        4PX         0.00281  -0.00307   0.04580  -0.02255  -0.00709
  93        4PY         0.00239   0.00139  -0.03289  -0.00692  -0.00211
  94        4PZ        -0.00000  -0.00000   0.00002  -0.00000   0.00001
  95        5XX        -0.00007   0.00011  -0.01013   0.00014  -0.00049
  96        5YY        -0.00002   0.00003  -0.00060  -0.00013   0.00029
  97        5ZZ        -0.00008   0.00001   0.01095  -0.00016  -0.00098
  98        5XY         0.00006   0.00001   0.01243   0.00041   0.00247
  99        5XZ        -0.00000   0.00000  -0.00001  -0.00000  -0.00000
 100        5YZ        -0.00000  -0.00000   0.00001  -0.00000  -0.00000
 101 7   C  1S          0.00011   0.00008   0.00869   0.00014   0.00122
 102        2S         -0.00004  -0.00004  -0.01776   0.00005  -0.00181
 103        2PX         0.00000   0.00001  -0.01053  -0.00015  -0.00111
 104        2PY         0.00001  -0.00000   0.00998   0.00015   0.00134
 105        2PZ         0.00000  -0.00000  -0.00000  -0.00000  -0.00000
 106        3S          0.00044   0.00125   0.01724  -0.00219  -0.00521
 107        3PX         0.00027   0.00039   0.01005  -0.00170  -0.00200
 108        3PY        -0.00005  -0.00074   0.00171  -0.00049   0.00077
 109        3PZ         0.00000   0.00000   0.00000   0.00000   0.00000
 110        4S          0.02022   0.03399  -0.63269  -0.08877   0.02181
 111        4PX         0.00312   0.00682  -0.10191  -0.01496   0.00014
 112        4PY        -0.00198  -0.00250   0.06567   0.00768  -0.00522
 113        4PZ         0.00000   0.00000  -0.00001   0.00001  -0.00000
 114        5XX         0.00001   0.00002  -0.00180  -0.00006  -0.00018
 115        5YY        -0.00003   0.00007  -0.00139   0.00002  -0.00008
 116        5ZZ        -0.00002  -0.00002   0.00033   0.00009   0.00013
 117        5XY         0.00000  -0.00006   0.00288   0.00004   0.00031
 118        5XZ         0.00000   0.00000  -0.00000  -0.00000  -0.00000
 119        5YZ         0.00000  -0.00000   0.00000   0.00000   0.00000
 120 8   H  1S         -0.00001   0.00001  -0.00290   0.00001  -0.00020
 121        2S          0.00005   0.00025  -0.00097   0.00079   0.00042
 122        3PX         0.00000  -0.00003   0.00019   0.00003   0.00003
 123        3PY        -0.00001   0.00002   0.00009  -0.00002   0.00000
 124        3PZ         0.00000   0.00000  -0.00000  -0.00000  -0.00000
 125 9   H  1S         -0.00001  -0.00000  -0.00355   0.00009  -0.00047
 126        2S          0.00011  -0.00001   0.00025  -0.00190  -0.00005
 127        3PX        -0.00000   0.00002  -0.00044  -0.00001  -0.00005
 128        3PY         0.00000   0.00002  -0.00001   0.00001   0.00001
 129        3PZ         0.00000  -0.00001  -0.00024  -0.00005  -0.00005
 130 10  H  1S         -0.00001  -0.00000  -0.00355   0.00009  -0.00047
 131        2S          0.00011  -0.00001   0.00024  -0.00190  -0.00005
 132        3PX        -0.00000   0.00002  -0.00043  -0.00001  -0.00005
 133        3PY         0.00000   0.00002  -0.00001   0.00001   0.00001
 134        3PZ        -0.00000   0.00001   0.00024   0.00005   0.00005
 135 11  N  1S         -0.00013   0.00001   0.00731  -0.01098  -0.07595
 136        2S          0.00005  -0.00005  -0.01281   0.02262   0.15262
 137        2PX        -0.00004   0.00003   0.00703   0.00773   0.00921
 138        2PY        -0.00001   0.00006   0.00110   0.00446   0.03662
 139        2PZ        -0.00000  -0.00000  -0.00000  -0.00000   0.00001
 140        3S          0.00242   0.00102  -0.02704   0.02181   0.14006
 141        3PX         0.00120  -0.00164   0.00712  -0.02299  -0.02752
 142        3PY        -0.00010  -0.00095  -0.00893   0.00065   0.01904
 143        3PZ         0.00000   0.00000  -0.00000   0.00000   0.00001
 144        4S          0.00670   0.00451   0.05191   0.00554  -0.07311
 145        4PX         0.01458  -0.00703  -0.02629  -0.03363  -0.04797
 146        4PY         0.00657   0.00148  -0.01906  -0.01329  -0.01679
 147        4PZ        -0.00000  -0.00000   0.00000   0.00001   0.00001
 148        5XX        -0.00017   0.00012  -0.00121   0.00121   0.00183
 149        5YY        -0.00025   0.00005   0.00069   0.00016   0.00424
 150        5ZZ         0.00011  -0.00002   0.00102  -0.00045  -0.00647
 151        5XY        -0.00025   0.00001  -0.00041   0.00027   0.00368
 152        5XZ        -0.00000  -0.00000  -0.00000  -0.00000   0.00000
 153        5YZ        -0.00000  -0.00000  -0.00000   0.00000   0.00000
 154 12  H  1S         -0.00014  -0.00016  -0.00364   0.00767   0.03488
 155        2S         -0.00051   0.00048  -0.00888   0.00499   0.01183
 156        3PX        -0.00002   0.00003   0.00045   0.00051  -0.00115
 157        3PY         0.00005   0.00001  -0.00053   0.00105   0.00436
 158        3PZ         0.00000  -0.00000  -0.00000   0.00000   0.00000
 159 13  C  1S          0.99202   0.00001   0.00167  -0.02598  -0.12302
 160        2S          0.05864  -0.00010  -0.00421   0.04643   0.22826
 161        2PX        -0.00094  -0.00007   0.00161   0.01345  -0.06304
 162        2PY         0.00028  -0.00006   0.00046   0.00608   0.11612
 163        2PZ         0.00000  -0.00000  -0.00000  -0.00000   0.00005
 164        3S         -0.01879   0.00159   0.01237   0.02440   0.07297
 165        3PX        -0.00055   0.00024  -0.00845   0.00762   0.02306
 166        3PY         0.00520  -0.00104   0.00041  -0.02165  -0.09130
 167        3PZ         0.00000  -0.00000   0.00000  -0.00001  -0.00004
 168        4S         -0.05975   0.02733   0.20195   0.03733   0.07529
 169        4PX        -0.00825   0.01404  -0.01987   0.14893  -0.01951
 170        4PY         0.01298  -0.00553  -0.03182  -0.00896   0.00057
 171        4PZ         0.00001  -0.00000  -0.00001  -0.00002   0.00000
 172        5XX        -0.01245  -0.00002   0.00018   0.00385  -0.01262
 173        5YY        -0.01144  -0.00004   0.00006   0.00222   0.01678
 174        5ZZ        -0.01245  -0.00003  -0.00001  -0.00341  -0.01795
 175        5XY         0.00002   0.00001  -0.00004  -0.00210  -0.00432
 176        5XZ         0.00000  -0.00000  -0.00000  -0.00000  -0.00000
 177        5YZ         0.00000   0.00000   0.00000   0.00000   0.00001
 178 14  O  1S         -0.00007  -0.00002   0.00109  -0.02017  -0.16895
 179        2S          0.00074  -0.00009  -0.00203   0.04339   0.35893
 180        2PX         0.00003  -0.00001   0.00008   0.00662   0.02040
 181        2PY        -0.00013   0.00002   0.00114  -0.01768  -0.13428
 182        2PZ        -0.00000   0.00000   0.00000  -0.00001  -0.00005
 183        3S         -0.00418   0.00062  -0.00484   0.04254   0.38775
 184        3PX        -0.00050   0.00013   0.00124   0.00225   0.00594
 185        3PY         0.00194  -0.00020   0.00183  -0.00762  -0.06177
 186        3PZ         0.00000  -0.00000   0.00000  -0.00000  -0.00002
 187        4S          0.00277  -0.00033  -0.00563   0.03037   0.01384
 188        4PX         0.00134  -0.00015  -0.00402   0.00586  -0.00019
 189        4PY        -0.00279   0.00070   0.00494  -0.01038  -0.01247
 190        4PZ        -0.00000   0.00000  -0.00000   0.00000  -0.00001
 191        5XX         0.00050  -0.00006   0.00022   0.00018  -0.00842
 192        5YY        -0.00011  -0.00003  -0.00024   0.00101   0.00808
 193        5ZZ         0.00056  -0.00005   0.00009  -0.00035  -0.00583
 194        5XY         0.00017  -0.00001  -0.00010  -0.00082  -0.00249
 195        5XZ         0.00000  -0.00000   0.00000  -0.00000   0.00000
 196        5YZ        -0.00000   0.00000  -0.00000   0.00000   0.00001
 197 15  C  1S         -0.00519   0.00000   0.00043  -0.10998  -0.00920
 198        2S         -0.00051   0.00003  -0.00091   0.20353   0.01747
 199        2PX        -0.00006   0.00004  -0.00000   0.09187  -0.04582
 200        2PY        -0.00002  -0.00001   0.00009   0.00763  -0.03232
 201        2PZ         0.00000   0.00000   0.00000  -0.00002  -0.00000
 202        3S          0.00495  -0.00111   0.00054   0.03513  -0.01703
 203        3PX        -0.00282  -0.00010  -0.00023  -0.02543   0.02548
 204        3PY        -0.00105   0.00006   0.00455  -0.00767   0.04877
 205        3PZ         0.00000  -0.00000   0.00000   0.00000   0.00001
 206        4S          0.03852  -0.02952  -0.05229  -0.14402  -0.01493
 207        4PX        -0.00924   0.00565   0.01279   0.00768   0.00816
 208        4PY         0.00218  -0.00277  -0.00594  -0.02661  -0.00825
 209        4PZ         0.00000  -0.00000  -0.00001  -0.00002  -0.00000
 210        5XX        -0.00002  -0.00002  -0.00010  -0.00153   0.00056
 211        5YY         0.00004  -0.00003  -0.00021   0.00984   0.00222
 212        5ZZ        -0.00003   0.00001   0.00009  -0.01726  -0.00049
 213        5XY         0.00005  -0.00001   0.00004   0.01064  -0.00926
 214        5XZ         0.00000   0.00000   0.00000  -0.00000  -0.00000
 215        5YZ         0.00000  -0.00000  -0.00000   0.00001   0.00000
 216 16  O  1S         -0.00002   0.00000   0.00029  -0.08493  -0.02261
 217        2S         -0.00010   0.00001  -0.00102   0.18438   0.04631
 218        2PX        -0.00001   0.00001   0.00013  -0.00642  -0.01099
 219        2PY        -0.00000   0.00000  -0.00035   0.07892   0.01376
 220        2PZ         0.00000  -0.00000  -0.00000   0.00003   0.00001
 221        3S         -0.00017  -0.00003   0.00179   0.16246   0.06831
 222        3PX         0.00051  -0.00005  -0.00019   0.00219  -0.00916
 223        3PY        -0.00041   0.00012   0.00136   0.02948   0.00996
 224        3PZ        -0.00000   0.00000   0.00000   0.00001   0.00001
 225        4S         -0.00535   0.00207   0.00447  -0.00630   0.03416
 226        4PX         0.00162  -0.00049  -0.00263   0.00391  -0.01061
 227        4PY        -0.00101   0.00049   0.00040   0.00200   0.01190
 228        4PZ        -0.00000   0.00000  -0.00000   0.00000   0.00001
 229        5XX        -0.00005   0.00001  -0.00008  -0.00337  -0.00065
 230        5YY        -0.00005   0.00003  -0.00003   0.00814  -0.00114
 231        5ZZ        -0.00013   0.00000  -0.00017  -0.00198  -0.00077
 232        5XY         0.00007  -0.00000  -0.00005   0.00008  -0.00177
 233        5XZ        -0.00000   0.00000  -0.00000   0.00000  -0.00000
 234        5YZ         0.00000   0.00000   0.00000   0.00000   0.00000
 235 17  O  1S         -0.00004  -0.00002   0.00037  -0.17573   0.05169
 236        2S         -0.00019  -0.00009  -0.00042   0.38295  -0.11081
 237        2PX         0.00001   0.00001   0.00014  -0.00620  -0.01405
 238        2PY         0.00002  -0.00000   0.00024  -0.10770   0.02625
 239        2PZ        -0.00000   0.00000   0.00000  -0.00003   0.00001
[...]
                                                    46(v),74(v)
    11. BD (   1) C   7 - H   8          0.99204    -0.42386  237(v),240(g),46(v)
    12. BD (   1) C   7 - H   9          0.98975    -0.42167  239(v),238(v),48(v),240(g)
    13. BD (   1) C   7 - H  10          0.98974    -0.42166  239(v),238(v),48(v),240(g)
    14. BD (   1) N  11 - H  12          0.98930    -0.51349  252(v),242(v),164(v),76(v)
                                                    251(g),73(v),245(g),165(v)
                                                    243(v)
    15. BD (   1) N  11 - C  13          0.99299    -0.67191  243(v),245(g),73(v),257(v)
                                                    252(g),191(v),250(g),74(v)
    16. BD (   1) C  13 - O  14          0.99697    -0.90961  251(g),250(v),163(g),254(g)
                                                    255(v)
    17. BD (   2) C  13 - O  14          0.98914    -0.19281  256(v),146(v)
    18. BD (   1) C  13 - C  15          0.98259    -0.45596  245(v),258(v),205(v),177(v)
                                                    219(v),147(v),252(g),255(g)
                                                    179(v)
    19. BD (   1) C  15 - O  16          0.99838    -0.93205  191(g),252(v),254(g)
    20. BD (   2) C  15 - O  16          0.99286    -0.21603  253(v),220(v)
    21. BD (   1) C  15 - O  17          0.99776    -0.81845  251(v),163(v),255(g)
    22. BD (   1) O  17 - H  18          0.99305    -0.60710  254(v),197(v),192(v),191(v)
                                                    255(v)
    23. CR (   1) C   1                  0.99954   -10.06354  238(g),88(v),120(v),246(v)
                                                    237(g)
    24. CR (   1) O   2                  0.99986   -18.96740  45(v),105(v)
    25. CR (   1) C   3                  0.99962   -10.04442  87(v),246(v),106(v),251(v)
                                                    250(v)
    26. CR (   1) C   4                  0.99942    -9.97340  46(v),240(v),74(v),245(v)
                                                    238(g),73(v),101(v),45(v)
    27. CR (   1) N   6                  0.99968   -14.12415  73(v),241(g),237(v),242(v)
    28. CR (   1) C   7                  0.99971   -10.03196  238(v),51(v),46(v)
    29. CR (   1) N  11                  0.99966   -14.10995  164(v),74(v),252(v),242(v)
                                                    76(v),163(v),167(v)
    30. CR (   1) C  13                  0.99966   -10.04003  245(v),255(v),250(v),196(v)
    31. CR (   1) O  14                  0.99989   -18.74797  163(v),251(v)
    32. CR (   1) C  15                  0.99973   -10.07474  252(v),164(v),258(v)
    33. CR (   1) O  16                  0.99989   -18.76919  191(v),257(v)
    34. CR (   1) O  17                  0.99988   -18.91098  192(v),193(v),191(v),255(v)
    35. LP (   1) O   2                  0.98800    -0.49685  45(v),238(v),243(v),105(v)
    36. LP (   2) O   2                  0.86210    -0.21430  239(v),244(v),47(v),107(v)
                                                    48(v),52(v)
    37. LP (   1) N   6                  0.97527    -0.31292  242(v),73(v),237(v),59(v)
                                                    245(v),250(r)
    38. LP (   1) N  11                  0.84392    -0.11698  253(v),244(v),75(v),166(v)
                                                    160(v),175(v)
    39. LP (   1) O  14                  0.98935    -0.51607  163(v),251(v),254(v)
    40. LP (   2) O  14                  0.92548    -0.08195  251(v),254(v),165(v),167(v)
                                                    164(v),185(g),246(r)
    41. LP (   1) O  16                  0.98843    -0.54455  191(v),254(v),257(v),193(v)
                                                    250(r)
    42. LP (   2) O  16                  0.92231    -0.11087  257(v),254(v),192(v),250(r)
                                                    196(v),193(v),201(v)
    43. LP (   1) O  17                  0.98728    -0.46438  255(v),193(v),191(v),254(v)
                                                    235(v),192(v)
    44. LP (   2) O  17                  0.91512    -0.19082  256(v),194(v),234(v),199(v)
    45. RY*(   1) C   1                  0.00380     0.99074   
    46. RY*(   2) C   1                  0.00217     1.25998   
    47. RY*(   3) C   1                  0.00129     1.82251   
    48. RY*(   4) C   1                  0.00102     1.01036   
    49. RY*(   5) C   1                  0.00058     1.86062   
    50. RY*(   6) C   1                  0.00025     1.76798   
    51. RY*(   7) C   1                  0.00016     1.94192   
    52. RY*(   8) C   1                  0.00015     1.87649   
    53. RY*(   9) C   1                  0.00007     1.45902   
    54. RY*(  10) C   1                  0.00004     2.74153   
    55. RY*(  11) C   1                  0.00003     0.91635   
    56. RY*(  12) C   1                  0.00001     1.34023   
    57. RY*(  13) C   1                  0.00000     0.56062   
    58. RY*(  14) C   1                  0.00001     2.45916   
    59. RY*(   1) O   2                  0.00265     0.91577   
    60. RY*(   2) O   2                  0.00109     0.83138   
    61. RY*(   3) O   2                  0.00084     0.60409   
    62. RY*(   4) O   2                  0.00048     2.02999   
    63. RY*(   5) O   2                  0.00043     1.44959   
    64. RY*(   6) O   2                  0.00013     1.54077   
    65. RY*(   7) O   2                  0.00008     1.37035   
    66. RY*(   8) O   2                  0.00004     2.14924   
    67. RY*(   9) O   2                  0.00000     1.19461   
    68. RY*(  10) O   2                  0.00000     3.99115   
    69. RY*(  11) O   2                  0.00001     1.68672   
    70. RY*(  12) O   2                  0.00000     1.86701   
    71. RY*(  13) O   2                  0.00001     2.70698   
    72. RY*(  14) O   2                  0.00000     2.49355   
    73. RY*(   1) C   3                  0.00584     1.05263   
    74. RY*(   2) C   3                  0.00195     1.16051   
    75. RY*(   3) C   3                  0.00111     1.91281   
    76. RY*(   4) C   3                  0.00100     1.74997   
    77. RY*(   5) C   3                  0.00062     1.81700   
    78. RY*(   6) C   3                  0.00029     1.26615   
    79. RY*(   7) C   3                  0.00013     2.15102   
    80. RY*(   8) C   3                  0.00011     1.29714   
    81. RY*(   9) C   3                  0.00006     3.44033   
    82. RY*(  10) C   3                  0.00004     1.20544   
    83. RY*(  11) C   3                  0.00002     0.92699   
    84. RY*(  12) C   3                  0.00002     0.47108   
    85. RY*(  13) C   3                  0.00003     1.67326   
    86. RY*(  14) C   3                  0.00001     2.49728   
    87. RY*(   1) C   4                  0.00170     0.91677   
    88. RY*(   2) C   4                  0.00142     1.17025   
    89. RY*(   3) C   4                  0.00060     0.44632   
    90. RY*(   4) C   4                  0.00030     0.70199   
    91. RY*(   5) C   4                  0.00014     2.01485   
    92. RY*(   6) C   4                  0.00010     1.23099   
    93. RY*(   7) C   4                  0.00008     1.22163   
    94. RY*(   8) C   4                  0.00004     1.26949   
    95. RY*(   9) C   4                  0.00001     0.69195   
    96. RY*(  10) C   4                  0.00002     2.12943   
    97. RY*(  11) C   4                  0.00001     4.05200   
    98. RY*(  12) C   4                  0.00001     2.05457   
    99. RY*(  13) C   4                  0.00001     1.81757   
   100. RY*(  14) C   4                  0.00001     2.49195   
   101. RY*(   1) H   5                  0.00078     0.71370   
   102. RY*(   2) H   5                  0.00007     2.34045   
   103. RY*(   3) H   5                  0.00005     2.67634   
   104. RY*(   4) H   5                  0.00001     3.22445   
   105. RY*(   1) N   6                  0.00159     1.04235   
   106. RY*(   2) N   6                  0.00086     1.13421   
   107. RY*(   3) N   6                  0.00080     0.90111   
   108. RY*(   4) N   6                  0.00030     1.46757   
   109. RY*(   5) N   6                  0.00031     1.59929   
   110. RY*(   6) N   6                  0.00014     1.23366   
   111. RY*(   7) N   6                  0.00007     1.85409   
   112. RY*(   8) N   6                  0.00004     1.40578   
   113. RY*(   9) N   6                  0.00001     1.60225   
   114. RY*(  10) N   6                  0.00001     3.87790   
   115. RY*(  11) N   6                  0.00001     0.94519   
   116. RY*(  12) N   6                  0.00000     1.45071   
   117. RY*(  13) N   6                  0.00001     1.58644   
   118. RY*(  14) N   6                  0.00001     2.34331   
   119. RY*(   1) C   7                  0.00150     0.76425   
   120. RY*(   2) C   7                  0.00034     0.80259   
   121. RY*(   3) C   7                  0.00023     1.50004   
   122. RY*(   4) C   7                  0.00013     1.02145   
   123. RY*(   5) C   7                  0.00008     0.59498   
   124. RY*(   6) C   7                  0.00005     1.23728   
   125. RY*(   7) C   7                  0.00003     0.95023   
   126. RY*(   8) C   7                  0.00002     1.04379   
   127. RY*(   9) C   7                  0.00000     4.26338   
   128. RY*(  10) C   7                  0.00000     1.94003   
   129. RY*(  11) C   7                  0.00001     0.55255   
   130. RY*(  12) C   7                  0.00000     2.06179   
   131. RY*(  13) C   7                  0.00000     1.87328   
   132. RY*(  14) C   7                  0.00000     2.41716   
   133. RY*(   1) H   8                  0.00021     0.77862   
   134. RY*(   2) H   8                  0.00005     2.34328   
   135. RY*(   3) H   8                  0.00006     2.37737   
   136. RY*(   4) H   8                  0.00000     3.13141   
   137. RY*(   1) H   9                  0.00061     0.75745   
   138. RY*(   2) H   9                  0.00005     2.40142   
   139. RY*(   3) H   9                  0.00006     2.38239   
   140. RY*(   4) H   9                  0.00000     3.12800   
   141. RY*(   1) H  10                  0.00061     0.75755   
   142. RY*(   2) H  10                  0.00005     2.40112   
   143. RY*(   3) H  10                  0.00006     2.38256   
   144. RY*(   4) H  10                  0.00000     3.12800   
   145. RY*(   1) N  11                  0.00168     1.44027   
   146. RY*(   2) N  11                  0.00151     0.75331   
   147. RY*(   3) N  11                  0.00117     1.21617   
   148. RY*(   4) N  11                  0.00069     1.49608   
   149. RY*(   5) N  11                  0.00029     1.23343   
   150. RY*(   6) N  11                  0.00018     1.97517   
   151. RY*(   7) N  11                  0.00011     2.09364   
   152. RY*(   8) N  11                  0.00007     1.77151   
   153. RY*(   9) N  11                  0.00008     0.95078   
   154. RY*(  10) N  11                  0.00002     1.60951   
   155. RY*(  11) N  11                  0.00002     1.98013   
   156. RY*(  12) N  11                  0.00001     2.01251   
   157. RY*(  13) N  11                  0.00002     2.60535   
   158. RY*(  14) N  11                  0.00000     4.17389   
   159. RY*(   1) H  12                  0.00122     0.91723   
   160. RY*(   2) H  12                  0.00018     2.41152   
   161. RY*(   3) H  12                  0.00008     2.80363   
   162. RY*(   4) H  12                  0.00002     3.24911   
   163. RY*(   1) C  13                  0.00875     1.07451   
   164. RY*(   2) C  13                  0.00347     1.46352   
   165. RY*(   3) C  13                  0.00153     1.86387   
   166. RY*(   4) C  13                  0.00117     2.23644   
   167. RY*(   5) C  13                  0.00074     1.45660   
   168. RY*(   6) C  13                  0.00051     1.35196   
   169. RY*(   7) C  13                  0.00018     1.17083   
   170. RY*(   8) C  13                  0.00012     3.52725   
   171. RY*(   9) C  13                  0.00006     1.93746   
   172. RY*(  10) C  13                  0.00005     2.19336   
   173. RY*(  11) C  13                  0.00001     0.84631   
   174. RY*(  12) C  13                  0.00002     1.04466   
   175. RY*(  13) C  13                  0.00000     0.31757   
   176. RY*(  14) C  13                  0.00001     2.67807   
   177. RY*(   1) O  14                  0.00172     1.27147   
   178. RY*(   2) O  14                  0.00044     0.75495   
   179. RY*(   3) O  14                  0.00035     2.06453   
   180. RY*(   4) O  14                  0.00007     1.58210   
   181. RY*(   5) O  14                  0.00005     1.65868   
   182. RY*(   6) O  14                  0.00003     2.56611   
   183. RY*(   7) O  14                  0.00003     2.92490   
   184. RY*(   8) O  14                  0.00002     1.13726   
   185. RY*(   9) O  14                  0.00003     1.81182   
   186. RY*(  10) O  14                  0.00001     1.56675   
   187. RY*(  11) O  14                  0.00001     2.00905   
   188. RY*(  12) O  14                  0.00001     1.26015   
   189. RY*(  13) O  14                  0.00000     2.08068   
   190. RY*(  14) O  14                  0.00000     2.02528   
   191. RY*(   1) C  15                  0.01005     1.01535   
   192. RY*(   2) C  15                  0.00458     1.41821   
   193. RY*(   3) C  15                  0.00155     1.72210   
   194. RY*(   4) C  15                  0.00141     2.31588   
   195. RY*(   5) C  15                  0.00072     1.56613   
   196. RY*(   6) C  15                  0.00040     1.71659   
   197. RY*(   7) C  15                  0.00038     2.29067   
   198. RY*(   8) C  15                  0.00016     1.66617   
   199. RY*(   9) C  15                  0.00010     0.98886   
   200. RY*(  10) C  15                  0.00005     2.36311   
   201. RY*(  11) C  15                  0.00001     1.02438   
   202. RY*(  12) C  15                  0.00001     0.63235   
   203. RY*(  13) C  15                  0.00001     1.11564   
   204. RY*(  14) C  15                  0.00001     2.52687   
   205. RY*(   1) O  16                  0.00198     1.23640   
   206. RY*(   2) O  16                  0.00036     0.63578   
   207. RY*(   3) O  16                  0.00016     2.47489   
   208. RY*(   4) O  16                  0.00009     2.19406   
   209. RY*(   5) O  16                  0.00009     1.27079   
   210. RY*(   6) O  16                  0.00006     1.76619   
   211. RY*(   7) O  16                  0.00003     1.99877   
   212. RY*(   8) O  16                  0.00001     1.73688   
   213. RY*(   9) O  16                  0.00001     1.50134   
   214. RY*(  10) O  16                  0.00001     0.87593   
   215. RY*(  11) O  16                  0.00001     1.91543   
   216. RY*(  12) O  16                  0.00000     2.05230   
   217. RY*(  13) O  16                  0.00001     2.30171   
   218. RY*(  14) O  16                  0.00001     2.09906   
   219. RY*(   1) O  17                  0.00152     1.26168   
   220. RY*(   2) O  17                  0.00066     0.73249   
   221. RY*(   3) O  17                  0.00061     1.04667   
   222. RY*(   4) O  17                  0.00016     1.20838   
   223. RY*(   5) O  17                  0.00012     1.80160   
   224. RY*(   6) O  17                  0.00005     1.65283   
   225. RY*(   7) O  17                  0.00003     1.49021   
   226. RY*(   8) O  17                  0.00003     1.34594   
   227. RY*(   9) O  17                  0.00000     3.57743   
   228. RY*(  10) O  17                  0.00000     2.41928   
   229. RY*(  11) O  17                  0.00000     1.79459   
   230. RY*(  12) O  17                  0.00000     2.06632   
   231. RY*(  13) O  17                  0.00001     2.30049   
   232. RY*(  14) O  17                  0.00000     2.26617   
   233. RY*(   1) H  18                  0.00270     0.90593   
   234. RY*(   2) H  18                  0.00037     2.40727   
   235. RY*(   3) H  18                  0.00029     2.64521   
   236. RY*(   4) H  18                  0.00000     3.15663   
   237. BD*(   1) C   1 - O   2          0.02110     0.50567   
   238. BD*(   1) C   1 - C   4          0.01199     0.73793   
   239. BD*(   2) C   1 - C   4          0.13923     0.15865  244(v),89(g),249(v),248(v)
                                                    95(g),52(g),60(v)
   240. BD*(   1) C   1 - C   7          0.00991     0.55617   
   241. BD*(   1) O   2 - N   6          0.01002     0.40157   
   242. BD*(   1) C   3 - C   4          0.01506     0.66357   
   243. BD*(   1) C   3 - N   6          0.00782     0.68664   
   244. BD*(   2) C   3 - N   6          0.18163     0.15698  239(v),82(g),109(g),89(v)
                                                    146(v),75(g)
   245. BD*(   1) C   3 - N  11          0.01619     0.60637   
   246. BD*(   1) C   4 - H   5          0.00674     0.58090   
   247. BD*(   1) C   7 - H   8          0.00209     0.50810   
   248. BD*(   1) C   7 - H   9          0.00559     0.50565   
   249. BD*(   1) C   7 - H  10          0.00559     0.50564   
   250. BD*(   1) N  11 - H  12          0.01206     0.57165   
   251. BD*(   1) N  11 - C  13          0.03913     0.65564   
   252. BD*(   1) C  13 - O  14          0.00584     0.80733   
   253. BD*(   2) C  13 - O  14          0.10069     0.22739  256(v),178(g),175(g),171(g)
                                                    166(g)
   254. BD*(   1) C  13 - C  15          0.05876     0.57197   
   255. BD*(   1) C  15 - O  16          0.01100     0.79729   
   256. BD*(   2) C  15 - O  16          0.09211     0.21409   
   257. BD*(   1) C  15 - O  17          0.04418     0.57157   
   258. BD*(   1) O  17 - H  18          0.00940     0.58282   
       -------------------------------
              Total Lewis   43.09807  ( 97.9502%)
        Valence non-Lewis    0.80616  (  1.8322%)
        Rydberg non-Lewis    0.09577  (  0.2177%)
       -------------------------------
            Total unit  1   44.00000  (100.0000%)
           Charge unit  1    0.00000
 Unable to Open any file for archive entry.
 1\1\GINC-USER\SP\UM06\6-31+G(d,p)\C6H6N2O4(1-,2)\USER\15-May-2023\0\\#
  6-31+g(d,p) pop=(full,nbo) m06\\I-M2\\-1,2\C,0,2.815018,0.267296,0.00
 0256\O,0,2.806257,-1.077298,-0.000325\C,0,0.765383,-0.448753,-0.000152
 \C,0,1.539024,0.740456,0.000351\H,0,1.190082,1.761481,0.000606\N,0,1.5
 02682,-1.537905,-0.00057\C,0,4.141179,0.920201,0.00047\H,0,4.025646,2.
 006539,0.002023\H,0,4.718979,0.627462,0.883806\H,0,4.718042,0.629938,-
 0.884303\N,0,-0.612923,-0.600792,-0.000082\H,0,-0.977647,-1.549964,0.0
 00298\C,0,-1.512436,0.420509,-0.000286\O,0,-1.258921,1.605534,-0.00075
 6\C,0,-2.946013,-0.129795,0.000172\O,0,-3.198349,-1.312485,0.00062\O,0
 ,-3.847943,0.840781,0.000075\H,0,-4.724697,0.42368,0.00035\\Version=ES
 64L-G16RevC.01\State=2-A\HF=-642.3198241\S2=0.754386\S2-1=0.\S2A=0.750
 014\RMSD=3.478e-09\Dipole=2.002003,0.571039,0.0009671\Quadrupole=-4.56
 27593,-4.1385042,8.7012635,5.6292654,0.0022089,0.0025858\PG=C01 [X(C6H
 6N2O4)]\\@
 The archive entry for this job was punched.


 THE SECRET OF SUCCESS IN LIFE IS TO EAT WHAT YOU LIKE, AND LET THE FOOD
 FIGHT IT OUT INSIDE YOU. -- FROM A FORTUNE COOKIE
 Job cpu time:       0 days  0 hours 38 minutes 48.5 seconds.
 Elapsed time:       0 days  0 hours  3 minutes 14.2 seconds.
 File lengths (MBytes):  RWF=     66 Int=      0 D2E=      0 Chk=      6 Scr=      1
 Normal termination of Gaussian 16 at Mon May 15 22:21:18 2023.
