 Entering Gaussian System, Link 0=/home/user/SOFTWARE/gauss/g16/g16
 Input=/home/user/WorkIMPORTANT/Joydeep/I-M3/I-M3.gjf
 Output=/home/user/WorkIMPORTANT/Joydeep/I-M3/I-M3.log
 Initial command:
 /home/user/SOFTWARE/gauss/g16/l1.exe "/home/user/SOFTWARE/gauss/scratch/Gau-58389.inp" -scrdir="/home/user/SOFTWARE/gauss/scratch/"
 Entering Link 1 = /home/user/SOFTWARE/gauss/g16/l1.exe PID=     58391.
  
 Copyright (c) 1988-2019, Gaussian, Inc.  All Rights Reserved.
  
 This is part of the Gaussian(R) 16 program.  It is based on
 the Gaussian(R) 09 system (copyright 2009, Gaussian, Inc.),
 the Gaussian(R) 03 system (copyright 2003, Gaussian, Inc.),
 the Gaussian(R) 98 system (copyright 1998, Gaussian, Inc.),
 the Gaussian(R) 94 system (copyright 1995, Gaussian, Inc.),
 the Gaussian 92(TM) system (copyright 1992, Gaussian, Inc.),
 the Gaussian 90(TM) system (copyright 1990, Gaussian, Inc.),
 the Gaussian 88(TM) system (copyright 1988, Gaussian, Inc.),
 the Gaussian 86(TM) system (copyright 1986, Carnegie Mellon
 University), and the Gaussian 82(TM) system (copyright 1983,
 Carnegie Mellon University). Gaussian is a federally registered
 trademark of Gaussian, Inc.
  
 This software contains proprietary and confidential information,
 including trade secrets, belonging to Gaussian, Inc.
  
 This software is provided under written license and may be
 used, copied, transmitted, or stored only in accord with that
 written license.
  
 The following legend is applicable only to US Government
 contracts under FAR:
  
                    RESTRICTED RIGHTS LEGEND
  
 Use, reproduction and disclosure by the US Government is
 subject to restrictions as set forth in subparagraphs (a)
 and (c) of the Commercial Computer Software - Restricted
 Rights clause in FAR 52.227-19.
  
 Gaussian, Inc.
 340 Quinnipiac St., Bldg. 40, Wallingford CT 06492
  
  
 ---------------------------------------------------------------
 Warning -- This program may not be used in any manner that
 competes with the business of Gaussian, Inc. or will provide
 assistance to any competitor of Gaussian, Inc.  The licensee
 of this program is prohibited from giving any competitor of
 Gaussian, Inc. access to this program.  By using this program,
 the user acknowledges that Gaussian, Inc. is engaged in the
 business of creating and licensing software in the field of
 computational chemistry and represents and warrants to the
 licensee that it is not a competitor of Gaussian, Inc. and that
 it will not use this program in any manner prohibited above.
 ---------------------------------------------------------------
  

 Cite this work as:
 Gaussian 16, Revision C.01,
 M. J. Frisch, G. W. Trucks, H. B. Schlegel, G. E. Scuseria, 
 M. A. Robb, J. R. Cheeseman, G. Scalmani, V. Barone, 
 G. A. Petersson, H. Nakatsuji, X. Li, M. Caricato, A. V. Marenich, 
 J. Bloino, B. G. Janesko, R. Gomperts, B. Mennucci, H. P. Hratchian, 
 J. V. Ortiz, A. F. Izmaylov, J. L. Sonnenberg, D. Williams-Young, 
 F. Ding, F. Lipparini, F. Egidi, J. Goings, B. Peng, A. Petrone, 
 T. Henderson, D. Ranasinghe, V. G. Zakrzewski, J. Gao, N. Rega, 
 G. Zheng, W. Liang, M. Hada, M. Ehara, K. Toyota, R. Fukuda, 
 J. Hasegawa, M. Ishida, T. Nakajima, Y. Honda, O. Kitao, H. Nakai, 
 T. Vreven, K. Throssell, J. A. Montgomery, Jr., J. E. Peralta, 
 F. Ogliaro, M. J. Bearpark, J. J. Heyd, E. N. Brothers, K. N. Kudin, 
 V. N. Staroverov, T. A. Keith, R. Kobayashi, J. Normand, 
 K. Raghavachari, A. P. Rendell, J. C. Burant, S. S. Iyengar, 
 J. Tomasi, M. Cossi, J. M. Millam, M. Klene, C. Adamo, R. Cammi, 
 J. W. Ochterski, R. L. Martin, K. Morokuma, O. Farkas, 
 J. B. Foresman, and D. J. Fox, Gaussian, Inc., Wallingford CT, 2019.
 
 ******************************************
 Gaussian 16:  ES64L-G16RevC.01  3-Jul-2019
                15-May-2023 
 ******************************************
 %mem=152GB
 %nprocshared=38
 Will use up to   38 processors via shared memory.
 --------------------------
 # opt freq 6-31+g(d,p) m06
 --------------------------
 1/18=20,19=15,26=3,38=1/1,3;
 2/9=110,12=2,17=6,18=5,40=1/2;
 3/5=1,6=6,7=111,11=2,25=1,30=1,71=1,74=-54/1,2,3;
 4//1;
 5/5=2,38=5/2;
 6/7=2,8=2,9=2,10=2,28=1/1;
 7//1,2,3,16;
 1/18=20,19=15,26=3/3(2);
 2/9=110/2;
 99//99;
 2/9=110/2;
 3/5=1,6=6,7=111,11=2,25=1,30=1,71=1,74=-54/1,2,3;
 4/5=5,16=3,69=1/1;
 5/5=2,38=5/2;
 7//1,2,3,16;
 1/18=20,19=15,26=3/3(-5);
 2/9=110/2;
 6/7=2,8=2,9=2,10=2,19=2,28=1/1;
 99/9=1/99;
 ----
 I-M3
 ----
 Symbolic Z-matrix:
 Charge =  0 Multiplicity = 1
 C                     1.19807  -0.20175  -0.11774 
 C                     0.82065   1.0819    0.02899 
 C                     1.78363   2.07179   0.27006 
 C                     3.07358   1.7125    0.48976 
 C                     3.42807   0.35546   0.47599 
 C                     2.45838  -0.60565   0.16388 
 H                     3.81547   2.46023   0.67793 
 H                     2.71342  -1.64448   0.13795 
 C                    -0.6923    1.45062  -0.04629 
 C                    -1.73001   0.46566   0.01881 
 C                    -3.19831   0.92268  -0.0639 
 O                    -1.05926   2.82816  -0.15858 
 H                    -1.96651   2.94249   0.13372 
 O                    -3.47068   2.14445  -0.19296 
 H                     1.50131   3.10365   0.29123 
 O                    -4.25221  -0.04133   0.00595 
 H                    -5.00614   0.27161  -0.4993 
 H                     4.43175   0.05754   0.69683 
 O                    -0.30463  -1.03024  -2.12417 
 O                     0.3936   -2.70124  -0.55812 
 S                    -0.03643  -1.3037   -0.70537 
 N                    -1.43502  -0.97996   0.17835 
 C                    -2.54418  -1.79742  -0.33392 
 H                    -3.43396  -1.57748   0.21818 
 H                    -2.70248  -1.5756   -1.36864 
 H                    -2.30345  -2.8342   -0.22418 
 

 GradGradGradGradGradGradGradGradGradGradGradGradGradGradGradGradGradGrad
 Berny optimization.
 Initialization pass.
                           ----------------------------
                           !    Initial Parameters    !
                           ! (Angstroms and Degrees)  !
 --------------------------                            --------------------------
 ! Name  Definition              Value          Derivative Info.                !
 --------------------------------------------------------------------------------
 ! R1    R(1,2)                  1.346          estimate D2E/DX2                !
 ! R2    R(1,6)                  1.3531         estimate D2E/DX2                !
 ! R3    R(1,21)                 1.756          estimate D2E/DX2                !
 ! R4    R(2,3)                  1.4019         estimate D2E/DX2                !
 ! R5    R(2,9)                  1.5591         estimate D2E/DX2                !
 ! R6    R(3,4)                  1.357          estimate D2E/DX2                !
 ! R7    R(3,15)                 1.07           estimate D2E/DX2                !
 ! R8    R(4,5)                  1.4026         estimate D2E/DX2                !
 ! R9    R(4,7)                  1.07           estimate D2E/DX2                !
 ! R10   R(5,6)                  1.4005         estimate D2E/DX2                !
 ! R11   R(5,18)                 1.07           estimate D2E/DX2                !
 ! R12   R(6,8)                  1.07           estimate D2E/DX2                !
 ! R13   R(9,10)                 1.4322         estimate D2E/DX2                !
 ! R14   R(9,12)                 1.43           estimate D2E/DX2                !
 ! R15   R(10,11)                1.54           estimate D2E/DX2                !
 ! R16   R(10,22)                1.484          estimate D2E/DX2                !
 ! R17   R(11,14)                1.2584         estimate D2E/DX2                !
 ! R18   R(11,16)                1.43           estimate D2E/DX2                !
 ! R19   R(12,13)                0.96           estimate D2E/DX2                !
 ! R20   R(16,17)                0.96           estimate D2E/DX2                !
 ! R21   R(19,21)                1.4696         estimate D2E/DX2                !
 ! R22   R(20,21)                1.4696         estimate D2E/DX2                !
 ! R23   R(21,22)                1.6858         estimate D2E/DX2                !
 ! R24   R(22,23)                1.47           estimate D2E/DX2                !
 ! R25   R(23,24)                1.07           estimate D2E/DX2                !
 ! R26   R(23,25)                1.07           estimate D2E/DX2                !
 ! R27   R(23,26)                1.07           estimate D2E/DX2                !
 ! A1    A(2,1,6)              121.5442         estimate D2E/DX2                !
 ! A2    A(2,1,21)             115.9645         estimate D2E/DX2                !
 ! A3    A(6,1,21)             122.4895         estimate D2E/DX2                !
 ! A4    A(1,2,3)              119.969          estimate D2E/DX2                !
 ! A5    A(1,2,9)              119.4978         estimate D2E/DX2                !
 ! A6    A(3,2,9)              120.5244         estimate D2E/DX2                !
 ! A7    A(2,3,4)              119.5958         estimate D2E/DX2                !
 ! A8    A(2,3,15)             120.2053         estimate D2E/DX2                !
 ! A9    A(4,3,15)             120.1956         estimate D2E/DX2                !
 ! A10   A(3,4,5)              119.6581         estimate D2E/DX2                !
 ! A11   A(3,4,7)              120.1696         estimate D2E/DX2                !
 ! A12   A(5,4,7)              120.1715         estimate D2E/DX2                !
 ! A13   A(4,5,6)              119.4158         estimate D2E/DX2                !
 ! A14   A(4,5,18)             120.2927         estimate D2E/DX2                !
 ! A15   A(6,5,18)             120.2907         estimate D2E/DX2                !
 ! A16   A(1,6,5)              119.1073         estimate D2E/DX2                !
 ! A17   A(1,6,8)              120.4495         estimate D2E/DX2                !
 ! A18   A(5,6,8)              120.4398         estimate D2E/DX2                !
 ! A19   A(2,9,10)             122.567          estimate D2E/DX2                !
 ! A20   A(2,9,12)             118.7282         estimate D2E/DX2                !
 ! A21   A(10,9,12)            118.6934         estimate D2E/DX2                !
 ! A22   A(9,10,11)            118.9657         estimate D2E/DX2                !
 ! A23   A(9,10,22)            122.0585         estimate D2E/DX2                !
 ! A24   A(11,10,22)           118.9724         estimate D2E/DX2                !
 ! A25   A(10,11,14)           120.0            estimate D2E/DX2                !
 ! A26   A(10,11,16)           120.0            estimate D2E/DX2                !
 ! A27   A(14,11,16)           120.0            estimate D2E/DX2                !
 ! A28   A(9,12,13)            109.4712         estimate D2E/DX2                !
 ! A29   A(11,16,17)           109.4712         estimate D2E/DX2                !
 ! A30   A(1,21,19)            109.5484         estimate D2E/DX2                !
 ! A31   A(1,21,20)            110.9477         estimate D2E/DX2                !
 ! A32   A(1,21,22)            106.6975         estimate D2E/DX2                !
 ! A33   A(19,21,20)           109.0917         estimate D2E/DX2                !
 ! A34   A(19,21,22)           108.6            estimate D2E/DX2                !
 ! A35   A(20,21,22)           111.8928         estimate D2E/DX2                !
 ! A36   A(10,22,21)           107.1958         estimate D2E/DX2                !
 ! A37   A(10,22,23)           110.748          estimate D2E/DX2                !
 ! A38   A(21,22,23)           109.665          estimate D2E/DX2                !
 ! A39   A(22,23,24)           109.4712         estimate D2E/DX2                !
 ! A40   A(22,23,25)           109.4712         estimate D2E/DX2                !
 ! A41   A(22,23,26)           109.4712         estimate D2E/DX2                !
 ! A42   A(24,23,25)           109.4712         estimate D2E/DX2                !
 ! A43   A(24,23,26)           109.4712         estimate D2E/DX2                !
 ! A44   A(25,23,26)           109.4712         estimate D2E/DX2                !
 ! D1    D(6,1,2,3)             10.398          estimate D2E/DX2                !
 ! D2    D(6,1,2,9)           -168.5274         estimate D2E/DX2                !
 ! D3    D(21,1,2,3)          -169.1174         estimate D2E/DX2                !
 ! D4    D(21,1,2,9)            11.9572         estimate D2E/DX2                !
 ! D5    D(2,1,6,5)             -6.9726         estimate D2E/DX2                !
 ! D6    D(2,1,6,8)            173.6956         estimate D2E/DX2                !
 ! D7    D(21,1,6,5)           172.5109         estimate D2E/DX2                !
 ! D8    D(21,1,6,8)            -6.8209         estimate D2E/DX2                !
 ! D9    D(2,1,21,19)           71.4259         estimate D2E/DX2                !
 ! D10   D(2,1,21,20)         -168.0716         estimate D2E/DX2                !
 ! D11   D(2,1,21,22)          -45.9534         estimate D2E/DX2                !
 ! D12   D(6,1,21,19)         -108.0845         estimate D2E/DX2                !
 ! D13   D(6,1,21,20)           12.4181         estimate D2E/DX2                !
 ! D14   D(6,1,21,22)          134.5362         estimate D2E/DX2                !
 ! D15   D(1,2,3,4)             -6.7084         estimate D2E/DX2                !
 ! D16   D(1,2,3,15)           173.9528         estimate D2E/DX2                !
 ! D17   D(9,2,3,4)            172.2058         estimate D2E/DX2                !
 ! D18   D(9,2,3,15)            -7.1331         estimate D2E/DX2                !
 ! D19   D(1,2,9,10)            13.6548         estimate D2E/DX2                !
 ! D20   D(1,2,9,12)          -167.5932         estimate D2E/DX2                !
 ! D21   D(3,2,9,10)          -165.2645         estimate D2E/DX2                !
 ! D22   D(3,2,9,12)            13.4876         estimate D2E/DX2                !
 ! D23   D(2,3,4,5)             -0.1346         estimate D2E/DX2                !
 ! D24   D(2,3,4,7)           -179.7958         estimate D2E/DX2                !
 ! D25   D(15,3,4,5)           179.2044         estimate D2E/DX2                !
 ! D26   D(15,3,4,7)            -0.4569         estimate D2E/DX2                !
 ! D27   D(3,4,5,6)              3.4311         estimate D2E/DX2                !
 ! D28   D(3,4,5,18)          -176.8961         estimate D2E/DX2                !
 ! D29   D(7,4,5,6)           -176.9077         estimate D2E/DX2                !
 ! D30   D(7,4,5,18)             2.7651         estimate D2E/DX2                !
 ! D31   D(4,5,6,1)             -0.0139         estimate D2E/DX2                !
 ! D32   D(4,5,6,8)            179.318          estimate D2E/DX2                !
 ! D33   D(18,5,6,1)          -179.6867         estimate D2E/DX2                !
 ! D34   D(18,5,6,8)            -0.3548         estimate D2E/DX2                !
 ! D35   D(2,9,10,11)         -179.9872         estimate D2E/DX2                !
 ! D36   D(2,9,10,22)            0.694          estimate D2E/DX2                !
 ! D37   D(12,9,10,11)           1.2604         estimate D2E/DX2                !
 ! D38   D(12,9,10,22)        -178.0584         estimate D2E/DX2                !
 ! D39   D(2,9,12,13)         -158.7117         estimate D2E/DX2                !
 ! D40   D(10,9,12,13)          20.0893         estimate D2E/DX2                !
 ! D41   D(9,10,11,14)           0.3299         estimate D2E/DX2                !
 ! D42   D(9,10,11,16)        -179.6701         estimate D2E/DX2                !
 ! D43   D(22,10,11,14)        179.6701         estimate D2E/DX2                !
 ! D44   D(22,10,11,16)         -0.3299         estimate D2E/DX2                !
 ! D45   D(9,10,22,21)         -36.6212         estimate D2E/DX2                !
 ! D46   D(9,10,22,23)        -156.2205         estimate D2E/DX2                !
 ! D47   D(11,10,22,21)        144.0601         estimate D2E/DX2                !
 ! D48   D(11,10,22,23)         24.4608         estimate D2E/DX2                !
 ! D49   D(10,11,16,17)       -150.0            estimate D2E/DX2                !
 ! D50   D(14,11,16,17)         30.0            estimate D2E/DX2                !
 ! D51   D(1,21,22,10)          55.3295         estimate D2E/DX2                !
 ! D52   D(1,21,22,23)         175.6207         estimate D2E/DX2                !
 ! D53   D(19,21,22,10)        -62.6746         estimate D2E/DX2                !
 ! D54   D(19,21,22,23)         57.6166         estimate D2E/DX2                !
 ! D55   D(20,21,22,10)        176.8501         estimate D2E/DX2                !
 ! D56   D(20,21,22,23)        -62.8587         estimate D2E/DX2                !
 ! D57   D(10,22,23,24)        -60.9472         estimate D2E/DX2                !
 ! D58   D(10,22,23,25)         59.0528         estimate D2E/DX2                !
 ! D59   D(10,22,23,26)        179.0528         estimate D2E/DX2                !
 ! D60   D(21,22,23,24)       -179.0528         estimate D2E/DX2                !
 ! D61   D(21,22,23,25)        -59.0528         estimate D2E/DX2                !
 ! D62   D(21,22,23,26)         60.9472         estimate D2E/DX2                !
 --------------------------------------------------------------------------------
 Trust Radius=3.00D-01 FncErr=1.00D-07 GrdErr=1.00D-06 EigMax=2.50D+02 EigMin=1.00D-04
 Number of steps in this run=    143 maximum allowed number of steps=    156.
 GradGradGradGradGradGradGradGradGradGradGradGradGradGradGradGradGradGrad

                          Input orientation:                          
 ---------------------------------------------------------------------
 Center     Atomic      Atomic             Coordinates (Angstroms)
 Number     Number       Type             X           Y           Z
 ---------------------------------------------------------------------
      1          6           0        1.198069   -0.201750   -0.117744
      2          6           0        0.820654    1.081900    0.028988
      3          6           0        1.783634    2.071786    0.270058
      4          6           0        3.073583    1.712504    0.489763
      5          6           0        3.428073    0.355459    0.475992
      6          6           0        2.458380   -0.605648    0.163882
      7          1           0        3.815467    2.460234    0.677934
      8          1           0        2.713421   -1.644485    0.137954
      9          6           0       -0.692295    1.450622   -0.046290
     10          6           0       -1.730014    0.465660    0.018813
     11          6           0       -3.198310    0.922677   -0.063900
     12          8           0       -1.059265    2.828165   -0.158581
     13          1           0       -1.966508    2.942493    0.133719
     14          8           0       -3.470681    2.144450   -0.192959
     15          1           0        1.501314    3.103651    0.291230
     16          8           0       -4.252215   -0.041328    0.005952
     17          1           0       -5.006136    0.271605   -0.499295
     18          1           0        4.431751    0.057536    0.696833
     19          8           0       -0.304635   -1.030243   -2.124175
     20          8           0        0.393599   -2.701236   -0.558124
     21         16           0       -0.036433   -1.303697   -0.705367
     22          7           0       -1.435018   -0.979962    0.178346
     23          6           0       -2.544181   -1.797420   -0.333923
     24          1           0       -3.433963   -1.577483    0.218177
     25          1           0       -2.702476   -1.575601   -1.368640
     26          1           0       -2.303453   -2.834197   -0.224183
 ---------------------------------------------------------------------
                    Distance matrix (angstroms):
                    1          2          3          4          5
     1  C    0.000000
     2  C    1.346004   0.000000
     3  C    2.379546   1.401898   0.000000
     4  C    2.747905   2.384463   1.356953   0.000000
     5  C    2.374009   2.743385   2.385868   1.402649   0.000000
     6  C    1.353082   2.355453   2.763188   2.420434   1.400515
     7  H    3.817071   3.360035   2.108459   1.070000   2.149635
     8  H    2.107880   3.320785   3.833096   3.394534   2.150528
     9  C    2.511755   1.559051   2.572187   3.812843   4.295299
    10  C    3.006285   2.624073   3.871497   4.985073   5.179480
    11  C    4.538213   4.023189   5.123645   6.345629   6.672493
    12  O    3.778572   2.572687   2.972863   4.329605   5.162670
    13  H    4.468114   3.352767   3.852309   5.200207   5.992612
    14  O    5.225661   4.426492   5.275177   6.593942   7.158267
    15  H    3.344382   2.149314   1.070000   2.108729   3.361413
    16  O    5.454047   5.195784   6.400505   7.548331   7.704881
    17  H    6.233924   5.906534   7.066367   8.266576   8.490824
    18  H    3.344767   3.812527   3.354380   2.150911   1.070000
    19  O    2.640129   3.219244   4.440247   5.076188   4.755432
    20  O    2.662431   3.852167   5.039823   5.268916   4.429538
    21  S    1.756013   2.639118   3.957017   4.494219   4.018856
    22  N    2.761599   3.059679   4.436360   5.260592   5.051890
    23  C    4.073982   4.443456   5.836568   6.675125   6.399895
    24  H    4.843677   5.020944   6.367352   7.296980   7.133741
    25  H    4.320469   4.629051   6.009487   6.901315   6.686948
    26  H    4.381982   5.015970   6.404469   7.077763   6.596555
                    6          7          8          9         10
     6  C    0.000000
     7  H    3.391985   0.000000
     8  H    1.070000   4.284250   0.000000
     9  C    3.768179   4.675867   4.605707   0.000000
    10  C    4.325666   5.930018   4.920469   1.432219   0.000000
    11  C    5.863941   7.218549   6.448226   2.561083   1.540000
    12  O    4.926346   4.959651   5.858813   1.430000   2.462276
    13  H    5.671847   5.827518   6.553023   1.970203   2.490750
    14  O    6.545544   7.344802   7.260072   2.867462   2.427572
    15  H    3.832897   2.432864   4.902805   2.767371   4.180274
    16  O    6.736133   8.473302   7.148959   3.860268   2.572683
    17  H    7.545090   9.164968   7.979289   4.494944   3.322510
    18  H    2.148964   2.480548   2.482314   5.361788   6.212377
    19  O    3.612441   6.083623   3.821410   3.259230   2.976882
    20  O    3.029208   6.314886   2.642503   4.321929   3.856399
    21  S    2.732574   5.560380   2.896381   2.907028   2.554070
    22  N    3.911377   6.296993   4.201519   2.551438   1.484013
    23  C    5.166599   7.719882   5.280950   3.749932   2.430806
    24  H    5.972195   8.310762   6.148272   4.093422   2.667887
    25  H    5.470271   7.934733   5.621966   3.866194   2.652819
    26  H    5.271820   8.141621   5.168712   4.581174   3.358115
                   11         12         13         14         15
    11  C    0.000000
    12  O    2.866245   0.000000
    13  H    2.374036   0.960000   0.000000
    14  O    1.258400   2.506706   1.733819   0.000000
    15  H    5.193191   2.614342   3.475136   5.086771   0.000000
    16  O    1.430000   4.296043   3.760846   2.329803   6.563183
    17  H    1.970203   4.714857   4.095570   2.441108   7.140891
    18  H    7.716542   6.209620   7.041150   8.221641   4.246269
    19  O    4.053638   4.395491   4.862360   4.881815   5.117100
    20  O    5.126286   5.731032   6.156332   6.208597   5.970356
    21  S    3.919908   4.291555   4.739133   4.893499   4.773111
    22  N    2.605363   3.841424   3.958551   3.747498   5.030972
    23  C    2.810645   4.861250   4.797830   4.051742   6.385714
    24  H    2.527034   5.019051   4.752972   3.744751   6.802596
    25  H    2.861746   4.853610   4.817873   3.976322   6.505568
    26  H    3.865303   5.797815   5.797567   5.113738   7.071065
                   16         17         18         19         20
    16  O    0.000000
    17  H    0.960000   0.000000
    18  H    8.711966   9.515791   0.000000
    19  O    4.593341   5.141903   5.619137   0.000000
    20  O    5.383018   6.164283   5.049002   2.394214   0.000000
    21  S    4.457843   5.217470   4.876863   1.469600   1.469600
    22  N    2.974450   3.844282   5.980319   2.565520   2.617062
    23  C    2.473208   3.220161   7.291567   2.968017   3.081834
    24  H    1.753382   2.530933   8.048097   3.946996   4.063951
    25  H    2.577826   3.078114   7.604638   2.572526   3.392590
    26  H    3.413320   4.126281   7.387380   3.295375   2.720898
                   21         22         23         24         25
    21  S    0.000000
    22  N    1.685761   0.000000
    23  C    2.582737   1.470000   0.000000
    24  H    3.531445   2.086720   1.070000   0.000000
    25  H    2.760733   2.086720   1.070000   1.747303   0.000000
    26  H    2.777292   2.086720   1.070000   1.747303   1.747303
                   26
    26  H    0.000000
 Stoichiometry    C10H9NO5S
 Framework group  C1[X(C10H9NO5S)]
 Deg. of freedom    72
 Full point group                 C1      NOp   1
 Largest Abelian subgroup         C1      NOp   1
 Largest concise Abelian subgroup C1      NOp   1
                         Standard orientation:                         
 ---------------------------------------------------------------------
 Center     Atomic      Atomic             Coordinates (Angstroms)
 Number     Number       Type             X           Y           Z
 ---------------------------------------------------------------------
      1          6           0       -1.615155   -0.348616   -0.062760
      2          6           0       -1.273933    0.951329    0.010984
      3          6           0       -2.270207    1.937595    0.017173
      4          6           0       -3.564137    1.584418   -0.188572
      5          6           0       -3.889584    0.237773   -0.407784
      6          6           0       -2.882611   -0.733187   -0.339333
      7          1           0       -4.331529    2.330079   -0.188989
      8          1           0       -3.114463   -1.766396   -0.493029
      9          6           0        0.232984    1.347655    0.063585
     10          6           0        1.283979    0.425377   -0.246352
     11          6           0        2.745045    0.905622   -0.167282
     12          8           0        0.578599    2.691454    0.409497
     13          1           0        1.462612    2.886813    0.090192
     14          8           0        3.000498    2.090312    0.171572
     15          1           0       -2.010690    2.963944    0.172603
     16          8           0        3.811462    0.005323   -0.478922
     17          1           0        4.589941    0.242972    0.030090
     18          1           0       -4.899209   -0.045819   -0.620229
     19          8           0        0.030216   -1.486545    1.660073
     20          8           0       -0.733754   -2.859526   -0.146452
     21         16           0       -0.323370   -1.500561    0.233713
     22          7           0        1.008499   -0.974234   -0.655611
     23          6           0        2.164638   -1.836787   -0.372339
     24          1           0        3.012347   -1.490086   -0.925592
     25          1           0        2.384837   -1.805758    0.674298
     26          1           0        1.938275   -2.842361   -0.659532
 ---------------------------------------------------------------------
 Rotational constants (GHZ):           0.7086683           0.3920562           0.2708291
 Standard basis: 6-31+G(d,p) (6D, 7F)
 There are   372 symmetry adapted cartesian basis functions of A   symmetry.
 There are   372 symmetry adapted basis functions of A   symmetry.
   372 basis functions,   631 primitive gaussians,   372 cartesian basis functions
    66 alpha electrons       66 beta electrons
       nuclear repulsion energy      1422.5163652979 Hartrees.
 NAtoms=   26 NActive=   26 NUniq=   26 SFac= 1.00D+00 NAtFMM=   60 NAOKFM=F Big=F
 Integral buffers will be    131072 words long.
 Raffenetti 2 integral format.
 Two-electron integral symmetry is turned on.
 One-electron integrals computed using PRISM.
 NBasis=   372 RedAO= T EigKep=  1.44D-06  NBF=   372
 NBsUse=   371 1.00D-06 EigRej=  7.16D-07 NBFU=   371
 ExpMin= 4.05D-02 ExpMax= 2.19D+04 ExpMxC= 3.30D+03 IAcc=3 IRadAn=         5 AccDes= 0.00D+00
 Harris functional with IExCor= 1009 and IRadAn=       5 diagonalized for initial guess.
 HarFok:  IExCor= 1009 AccDes= 0.00D+00 IRadAn=         5 IDoV= 1 UseB2=F ITyADJ=14
 ICtDFT=  3500011 ScaDFX=  1.000000  1.000000  1.000000  1.000000
 FoFCou: FMM=F IPFlag=           0 FMFlag=      100000 FMFlg1=           0
         NFxFlg=           0 DoJE=T BraDBF=F KetDBF=T FulRan=T
         wScrn=  0.000000 ICntrl=       500 IOpCl=  0 I1Cent=   200000004 NGrid=           0
         NMat0=    1 NMatS0=      1 NMatT0=    0 NMatD0=    1 NMtDS0=    0 NMtDT0=    0
 Petite list used in FoFCou.
 Requested convergence on RMS density matrix=1.00D-08 within 128 cycles.
 Requested convergence on MAX density matrix=1.00D-06.
 Requested convergence on             energy=1.00D-06.
 No special actions if energy rises.
 SCF Done:  E(RM06) =  -1214.94566433     A.U. after   17 cycles
            NFock= 17  Conv=0.61D-08     -V/T= 2.0082

 **********************************************************************

            Population analysis using the SCF Density.

 **********************************************************************

 Orbital symmetries:
       Occupied  (A) (A) (A) (A) (A) (A) (A) (A) (A) (A) (A) (A)
                 (A) (A) (A) (A) (A) (A) (A) (A) (A) (A) (A) (A)
                 (A) (A) (A) (A) (A) (A) (A) (A) (A) (A) (A) (A)
                 (A) (A) (A) (A) (A) (A) (A) (A) (A) (A) (A) (A)
                 (A) (A) (A) (A) (A) (A) (A) (A) (A) (A) (A) (A)
                 (A) (A) (A) (A) (A) (A)
       Virtual   (A) (A) (A) (A) (A) (A) (A) (A) (A) (A) (A) (A)
                 (A) (A) (A) (A) (A) (A) (A) (A) (A) (A) (A) (A)
                 (A) (A) (A) (A) (A) (A) (A) (A) (A) (A) (A) (A)
                 (A) (A) (A) (A) (A) (A) (A) (A) (A) (A) (A) (A)
                 (A) (A) (A) (A) (A) (A) (A) (A) (A) (A) (A) (A)
                 (A) (A) (A) (A) (A) (A) (A) (A) (A) (A) (A) (A)
                 (A) (A) (A) (A) (A) (A) (A) (A) (A) (A) (A) (A)
                 (A) (A) (A) (A) (A) (A) (A) (A) (A) (A) (A) (A)
                 (A) (A) (A) (A) (A) (A) (A) (A) (A) (A) (A) (A)
                 (A) (A) (A) (A) (A) (A) (A) (A) (A) (A) (A) (A)
                 (A) (A) (A) (A) (A) (A) (A) (A) (A) (A) (A) (A)
                 (A) (A) (A) (A) (A) (A) (A) (A) (A) (A) (A) (A)
                 (A) (A) (A) (A) (A) (A) (A) (A) (A) (A) (A) (A)
                 (A) (A) (A) (A) (A) (A) (A) (A) (A) (A) (A) (A)
                 (A) (A) (A) (A) (A) (A) (A) (A) (A) (A) (A) (A)
                 (A) (A) (A) (A) (A) (A) (A) (A) (A) (A) (A) (A)
                 (A) (A) (A) (A) (A) (A) (A) (A) (A) (A) (A) (A)
                 (A) (A) (A) (A) (A) (A) (A) (A) (A) (A) (A) (A)
                 (A) (A) (A) (A) (A) (A) (A) (A) (A) (A) (A) (A)
                 (A) (A) (A) (A) (A) (A) (A) (A) (A) (A) (A) (A)
                 (A) (A) (A) (A) (A) (A) (A) (A) (A) (A) (A) (A)
                 (A) (A) (A) (A) (A) (A) (A) (A) (A) (A) (A) (A)
                 (A) (A) (A) (A) (A) (A) (A) (A) (A) (A) (A) (A)
                 (A) (A) (A) (A) (A) (A) (A) (A) (A) (A) (A) (A)
                 (A) (A) (A) (A) (A) (A) (A) (A) (A) (A) (A) (A)
                 (A) (A) (A) (A) (A)
 The electronic state is 1-A.
 Alpha  occ. eigenvalues --  -89.30305 -19.31731 -19.29510 -19.27764 -19.23952
 Alpha  occ. eigenvalues --  -19.23075 -14.48842 -10.45870 -10.40260 -10.36280
 Alpha  occ. eigenvalues --  -10.33312 -10.32697 -10.30769 -10.30675 -10.30297
 Alpha  occ. eigenvalues --  -10.30217 -10.28511  -8.27089  -6.18894  -6.18775
 Alpha  occ. eigenvalues --   -6.18705  -1.15022  -1.14490  -1.09880  -1.06722
 Alpha  occ. eigenvalues --   -1.02454  -0.98907  -0.93589  -0.84161  -0.82398
 Alpha  occ. eigenvalues --   -0.79540  -0.75298  -0.71409  -0.68411  -0.66119
 Alpha  occ. eigenvalues --   -0.65503  -0.60632  -0.59743  -0.57280  -0.54959
 Alpha  occ. eigenvalues --   -0.53086  -0.52096  -0.51522  -0.50715  -0.49702
 Alpha  occ. eigenvalues --   -0.48969  -0.47982  -0.47376  -0.46599  -0.45527
 Alpha  occ. eigenvalues --   -0.44903  -0.43558  -0.41511  -0.40486  -0.40448
 Alpha  occ. eigenvalues --   -0.39802  -0.38280  -0.36160  -0.35158  -0.34432
 Alpha  occ. eigenvalues --   -0.34072  -0.32912  -0.31455  -0.31079  -0.30085
 Alpha  occ. eigenvalues --   -0.25774
 Alpha virt. eigenvalues --   -0.10379  -0.05253  -0.03790  -0.03376  -0.03198
 Alpha virt. eigenvalues --   -0.01886  -0.01246  -0.00434  -0.00015   0.00832
 Alpha virt. eigenvalues --    0.01172   0.01525   0.02012   0.02205   0.02681
 Alpha virt. eigenvalues --    0.03419   0.03919   0.04493   0.04708   0.05150
 Alpha virt. eigenvalues --    0.05698   0.06893   0.07253   0.07462   0.07558
 Alpha virt. eigenvalues --    0.08075   0.08612   0.09045   0.09433   0.09671
 Alpha virt. eigenvalues --    0.09883   0.10225   0.10987   0.11927   0.12263
 Alpha virt. eigenvalues --    0.13001   0.13537   0.14013   0.14367   0.14741
 Alpha virt. eigenvalues --    0.14987   0.15523   0.15939   0.16572   0.16619
 Alpha virt. eigenvalues --    0.17580   0.18078   0.18545   0.18969   0.19277
 Alpha virt. eigenvalues --    0.19862   0.19901   0.20085   0.20935   0.21248
 Alpha virt. eigenvalues --    0.21429   0.21872   0.22580   0.23172   0.23379
 Alpha virt. eigenvalues --    0.23679   0.24106   0.24515   0.24813   0.25239
 Alpha virt. eigenvalues --    0.25968   0.26527   0.27097   0.27657   0.28076
 Alpha virt. eigenvalues --    0.28222   0.28538   0.29219   0.29978   0.30556
 Alpha virt. eigenvalues --    0.31267   0.31882   0.31949   0.32447   0.32955
 Alpha virt. eigenvalues --    0.33098   0.33833   0.34745   0.34798   0.35741
 Alpha virt. eigenvalues --    0.36090   0.37115   0.38076   0.38509   0.39355
 Alpha virt. eigenvalues --    0.40706   0.41461   0.42350   0.43705   0.43990
 Alpha virt. eigenvalues --    0.47517   0.49729   0.52749   0.54121   0.57942
 Alpha virt. eigenvalues --    0.60012   0.61008   0.63071   0.63580   0.64874
 Alpha virt. eigenvalues --    0.65510   0.66601   0.67091   0.67468   0.68865
 Alpha virt. eigenvalues --    0.69691   0.70336   0.71356   0.72116   0.72904
 Alpha virt. eigenvalues --    0.73221   0.75148   0.76651   0.76889   0.79853
 Alpha virt. eigenvalues --    0.81230   0.83016   0.83682   0.84837   0.86709
 Alpha virt. eigenvalues --    0.88108   0.88475   0.89175   0.90997   0.95460
 Alpha virt. eigenvalues --    0.95685   0.96027   0.97874   0.99089   1.00141
 Alpha virt. eigenvalues --    1.01363   1.02670   1.04423   1.05233   1.05903
 Alpha virt. eigenvalues --    1.07727   1.08778   1.09351   1.10446   1.11898
 Alpha virt. eigenvalues --    1.12252   1.13312   1.15140   1.15749   1.16579
 Alpha virt. eigenvalues --    1.17605   1.18707   1.21046   1.21716   1.22839
 Alpha virt. eigenvalues --    1.24186   1.24850   1.25740   1.26810   1.28407
 Alpha virt. eigenvalues --    1.29248   1.29300   1.30500   1.31342   1.32427
 Alpha virt. eigenvalues --    1.32823   1.33450   1.34188   1.35429   1.36176
 Alpha virt. eigenvalues --    1.36507   1.37548   1.38032   1.39170   1.39436
 Alpha virt. eigenvalues --    1.41312   1.42308   1.44044   1.45333   1.46516
 Alpha virt. eigenvalues --    1.49468   1.51369   1.53792   1.55817   1.58805
 Alpha virt. eigenvalues --    1.60647   1.61130   1.64554   1.67193   1.68027
 Alpha virt. eigenvalues --    1.70307   1.73006   1.74527   1.75722   1.76436
 Alpha virt. eigenvalues --    1.77725   1.80304   1.80449   1.81119   1.83739
 Alpha virt. eigenvalues --    1.84738   1.84972   1.85584   1.87154   1.87428
 Alpha virt. eigenvalues --    1.88748   1.89609   1.90383   1.90752   1.92336
 Alpha virt. eigenvalues --    1.92541   1.93979   1.95046   1.96081   1.97656
 Alpha virt. eigenvalues --    1.99522   2.01364   2.02084   2.02998   2.05609
 Alpha virt. eigenvalues --    2.08193   2.09974   2.11867   2.12626   2.14023
 Alpha virt. eigenvalues --    2.17484   2.20038   2.20250   2.21665   2.23272
 Alpha virt. eigenvalues --    2.24775   2.27112   2.28612   2.29563   2.31252
 Alpha virt. eigenvalues --    2.32925   2.34508   2.36163   2.36493   2.37605
 Alpha virt. eigenvalues --    2.39908   2.42476   2.44198   2.44894   2.46682
 Alpha virt. eigenvalues --    2.47627   2.49271   2.52365   2.52552   2.54682
 Alpha virt. eigenvalues --    2.54851   2.55838   2.57525   2.60173   2.60229
 Alpha virt. eigenvalues --    2.61377   2.63063   2.65785   2.68816   2.70095
 Alpha virt. eigenvalues --    2.75415   2.76462   2.77287   2.78898   2.82951
 Alpha virt. eigenvalues --    2.84607   2.88744   2.89967   2.93879   2.96885
 Alpha virt. eigenvalues --    2.97597   2.99825   3.03006   3.03859   3.08712
 Alpha virt. eigenvalues --    3.13658   3.15807   3.20414   3.25090   3.31652
 Alpha virt. eigenvalues --    3.33423   3.33961   3.44265   3.45253   3.46379
 Alpha virt. eigenvalues --    3.47723   3.56907   3.77790   3.98043   4.20217
 Alpha virt. eigenvalues --    4.23025   4.23653   4.25531   4.27502   4.28863
 Alpha virt. eigenvalues --    4.31091   4.35690   4.41330   4.43351   4.45949
 Alpha virt. eigenvalues --    4.54482   4.59157   4.64076   4.70895   4.78648
          Condensed to atoms (all electrons):
               1          2          3          4          5          6
     1  C   29.708348  -3.721123  -3.565298   2.193951  -0.437442  -9.685990
     2  C   -3.721123  32.113131 -11.663903   2.202982  -1.362755  -2.627002
     3  C   -3.565298 -11.663903  18.073647  -3.746370  -0.055385   5.924152
     4  C    2.193951   2.202982  -3.746370   8.745351   0.102568  -2.301192
     5  C   -0.437442  -1.362755  -0.055385   0.102568   6.889415  -0.241318
     6  C   -9.685990  -2.627002   5.924152  -2.301192  -0.241318  15.850972
     7  H   -0.014513   0.044692   0.034498   0.201903   0.053692   0.005830
     8  H    0.078950  -0.076788  -0.015017  -0.002052   0.038221   0.239285
     9  C   -5.827725  -9.052600   0.065888  -0.941031   0.311879  -2.763916
    10  C    0.494766   1.148616   1.940770  -0.561494  -0.052019   2.412529
    11  C   -0.909849  -0.986972  -0.368112  -0.000873   0.038999  -0.313690
    12  O   -0.160940  -0.678956   0.186540   0.041873   0.002069   0.023700
    13  H    0.016491   0.156339  -0.025627  -0.009610  -0.000752   0.005424
    14  O   -0.005136   0.132099  -0.001298   0.004120  -0.000253  -0.004058
    15  H    0.015360   0.042490   0.240156  -0.020540   0.006418  -0.026989
    16  O    0.013278  -0.009961   0.004813  -0.000814   0.000156   0.005265
    17  H    0.000136   0.005826  -0.000096   0.000020  -0.000007   0.000022
    18  H    0.058188  -0.029165   0.011945   0.051143   0.207588   0.020762
    19  O   -0.151880  -0.007868   0.000209   0.000847   0.036782   0.134721
    20  O   -0.024591  -0.234182  -0.021960   0.012990   0.111485   0.041983
    21  S    0.061541  -0.319372  -0.620312   0.044609   0.404609  -0.416732
    22  N   -0.144664  -0.303964  -0.327393   0.068575   0.016266  -0.479224
    23  C   -0.013372   0.126052   0.017880  -0.004466  -0.014852  -0.008638
    24  H   -0.010016   0.009678  -0.002316   0.000177  -0.000095  -0.000837
    25  H    0.009181  -0.000731   0.004482  -0.000048   0.000203   0.002791
    26  H    0.000513   0.003053  -0.000295  -0.000040  -0.000179   0.001995
               7          8          9         10         11         12
     1  C   -0.014513   0.078950  -5.827725   0.494766  -0.909849  -0.160940
     2  C    0.044692  -0.076788  -9.052600   1.148616  -0.986972  -0.678956
     3  C    0.034498  -0.015017   0.065888   1.940770  -0.368112   0.186540
     4  C    0.201903  -0.002052  -0.941031  -0.561494  -0.000873   0.041873
     5  C    0.053692   0.038221   0.311879  -0.052019   0.038999   0.002069
     6  C    0.005830   0.239285  -2.763916   2.412529  -0.313690   0.023700
     7  H    0.522761  -0.000138  -0.007311   0.001349   0.000016   0.000119
     8  H   -0.000138   0.489268   0.007801  -0.002745   0.000432   0.000007
     9  C   -0.007311   0.007801  36.474337 -16.900456   2.781456   0.717344
    10  C    0.001349  -0.002745 -16.900456  26.206362  -4.957085   0.001836
    11  C    0.000016   0.000432   2.781456  -4.957085   8.962682  -0.058118
    12  O    0.000119   0.000007   0.717344   0.001836  -0.058118   8.272495
    13  H   -0.000000  -0.000000  -0.070063  -0.062419   0.003258   0.200699
    14  O    0.000000  -0.000000   0.013572  -0.214019   0.359645  -0.036508
    15  H   -0.005350   0.000015   0.028356   0.022709   0.001090  -0.001025
    16  O    0.000000  -0.000000  -0.015386  -0.080238   0.195961  -0.002938
    17  H   -0.000000  -0.000000  -0.005562   0.029023  -0.011287   0.000033
    18  H   -0.004560  -0.004713   0.002399  -0.001908   0.000006   0.000000
    19  O    0.000004  -0.000741  -0.424284   0.215245   0.110434  -0.000673
    20  O   -0.000003   0.002656  -0.214106   0.198521  -0.068661  -0.000488
    21  S   -0.000945   0.049621  -1.257085  -0.648057   0.215250  -0.021819
    22  N   -0.000008  -0.000916   3.010971  -3.275841   0.524230   0.002770
    23  C    0.000008   0.000813  -0.352661   0.201582  -0.014357   0.001148
    24  H   -0.000000   0.000000  -0.014129   0.015324  -0.044226  -0.000011
    25  H    0.000000  -0.000000   0.004932   0.012525   0.022857  -0.000042
    26  H    0.000000  -0.000001  -0.011175   0.048444  -0.020335   0.000016
              13         14         15         16         17         18
     1  C    0.016491  -0.005136   0.015360   0.013278   0.000136   0.058188
     2  C    0.156339   0.132099   0.042490  -0.009961   0.005826  -0.029165
     3  C   -0.025627  -0.001298   0.240156   0.004813  -0.000096   0.011945
     4  C   -0.009610   0.004120  -0.020540  -0.000814   0.000020   0.051143
     5  C   -0.000752  -0.000253   0.006418   0.000156  -0.000007   0.207588
     6  C    0.005424  -0.004058  -0.026989   0.005265   0.000022   0.020762
     7  H   -0.000000   0.000000  -0.005350   0.000000  -0.000000  -0.004560
     8  H   -0.000000  -0.000000   0.000015  -0.000000  -0.000000  -0.004713
     9  C   -0.070063   0.013572   0.028356  -0.015386  -0.005562   0.002399
    10  C   -0.062419  -0.214019   0.022709  -0.080238   0.029023  -0.001908
    11  C    0.003258   0.359645   0.001090   0.195961  -0.011287   0.000006
    12  O    0.200699  -0.036508  -0.001025  -0.002938   0.000033   0.000000
    13  H    0.338592   0.035410  -0.000063   0.002218  -0.000001   0.000000
    14  O    0.035410   8.294321  -0.000019  -0.103978  -0.001064   0.000000
    15  H   -0.000063  -0.000019   0.509450   0.000001  -0.000000  -0.000172
    16  O    0.002218  -0.103978   0.000001   8.512339   0.217098  -0.000000
    17  H   -0.000001  -0.001064  -0.000000   0.217098   0.346391  -0.000000
    18  H    0.000000   0.000000  -0.000172  -0.000000  -0.000000   0.520892
    19  O    0.000101  -0.000224   0.000001  -0.000352   0.000033   0.000011
    20  O    0.000016  -0.000070   0.000018   0.000260  -0.000005   0.000221
    21  S    0.005976   0.000935   0.002214  -0.023753   0.001049   0.000084
    22  N   -0.001696   0.021682   0.000026  -0.016406   0.001638   0.000080
    23  C   -0.000784  -0.004047  -0.000071  -0.104561   0.009086  -0.000038
    24  H   -0.000004   0.000491   0.000000  -0.063697   0.004278   0.000000
    25  H    0.000002  -0.000497  -0.000000  -0.000484  -0.000527  -0.000000
    26  H   -0.000000   0.000046  -0.000000   0.004106  -0.000084  -0.000000
              19         20         21         22         23         24
     1  C   -0.151880  -0.024591   0.061541  -0.144664  -0.013372  -0.010016
     2  C   -0.007868  -0.234182  -0.319372  -0.303964   0.126052   0.009678
     3  C    0.000209  -0.021960  -0.620312  -0.327393   0.017880  -0.002316
     4  C    0.000847   0.012990   0.044609   0.068575  -0.004466   0.000177
     5  C    0.036782   0.111485   0.404609   0.016266  -0.014852  -0.000095
     6  C    0.134721   0.041983  -0.416732  -0.479224  -0.008638  -0.000837
     7  H    0.000004  -0.000003  -0.000945  -0.000008   0.000008  -0.000000
     8  H   -0.000741   0.002656   0.049621  -0.000916   0.000813   0.000000
     9  C   -0.424284  -0.214106  -1.257085   3.010971  -0.352661  -0.014129
    10  C    0.215245   0.198521  -0.648057  -3.275841   0.201582   0.015324
    11  C    0.110434  -0.068661   0.215250   0.524230  -0.014357  -0.044226
    12  O   -0.000673  -0.000488  -0.021819   0.002770   0.001148  -0.000011
    13  H    0.000101   0.000016   0.005976  -0.001696  -0.000784  -0.000004
    14  O   -0.000224  -0.000070   0.000935   0.021682  -0.004047   0.000491
    15  H    0.000001   0.000018   0.002214   0.000026  -0.000071   0.000000
    16  O   -0.000352   0.000260  -0.023753  -0.016406  -0.104561  -0.063697
    17  H    0.000033  -0.000005   0.001049   0.001638   0.009086   0.004278
    18  H    0.000011   0.000221   0.000084   0.000080  -0.000038   0.000000
    19  O    8.567732  -0.188854   0.473742  -0.246212  -0.020752  -0.000194
    20  O   -0.188854   8.807568   0.306539  -0.071164  -0.080058   0.001257
    21  S    0.473742   0.306539  16.768014  -0.082854  -0.161304   0.032230
    22  N   -0.246212  -0.071164  -0.082854   8.779443   0.020852  -0.037649
    23  C   -0.020752  -0.080058  -0.161304   0.020852   5.444304   0.440355
    24  H   -0.000194   0.001257   0.032230  -0.037649   0.440355   0.512525
    25  H    0.004358  -0.001782  -0.039845  -0.065015   0.404838  -0.033357
    26  H   -0.002128   0.005076   0.008660  -0.064082   0.385847  -0.018131
              25         26
     1  C    0.009181   0.000513
     2  C   -0.000731   0.003053
     3  C    0.004482  -0.000295
     4  C   -0.000048  -0.000040
     5  C    0.000203  -0.000179
     6  C    0.002791   0.001995
     7  H    0.000000   0.000000
     8  H   -0.000000  -0.000001
     9  C    0.004932  -0.011175
    10  C    0.012525   0.048444
    11  C    0.022857  -0.020335
    12  O   -0.000042   0.000016
    13  H    0.000002  -0.000000
    14  O   -0.000497   0.000046
    15  H   -0.000000  -0.000000
    16  O   -0.000484   0.004106
    17  H   -0.000527  -0.000084
    18  H   -0.000000  -0.000000
    19  O    0.004358  -0.002128
    20  O   -0.001782   0.005076
    21  S   -0.039845   0.008660
    22  N   -0.065015  -0.064082
    23  C    0.404838   0.385847
    24  H   -0.033357  -0.018131
    25  H    0.510781  -0.029552
    26  H   -0.029552   0.503371
 Mulliken charges:
               1
     1  C   -1.978166
     2  C    1.090383
     3  C   -0.091599
     4  C   -0.082580
     5  C   -0.055291
     6  C    0.200155
     7  H    0.167955
     8  H    0.196044
     9  C    0.438554
    10  C   -0.193319
    11  C    0.537251
    12  O   -0.489133
    13  H    0.406492
    14  O   -0.491152
    15  H    0.185923
    16  O   -0.532926
    17  H    0.403998
    18  H    0.167233
    19  O   -0.500059
    20  O   -0.582665
    21  S    1.217002
    22  N   -0.329446
    23  C   -0.272806
    24  H    0.208347
    25  H    0.194930
    26  H    0.184874
 Sum of Mulliken charges =  -0.00000
 Mulliken charges with hydrogens summed into heavy atoms:
               1
     1  C   -1.978166
     2  C    1.090383
     3  C    0.094324
     4  C    0.085376
     5  C    0.111942
     6  C    0.396199
     9  C    0.438554
    10  C   -0.193319
    11  C    0.537251
    12  O   -0.082641
    14  O   -0.491152
    16  O   -0.128928
    19  O   -0.500059
    20  O   -0.582665
    21  S    1.217002
    22  N   -0.329446
    23  C    0.315346
 Electronic spatial extent (au):  <R**2>=           3927.2323
 Charge=              0.0000 electrons
 Dipole moment (field-independent basis, Debye):
    X=             -0.7577    Y=              2.6464    Z=             -2.2828  Tot=              3.5761
 Quadrupole moment (field-independent basis, Debye-Ang):
   XX=            -74.1645   YY=           -115.1372   ZZ=           -113.6683
   XY=            -10.5527   XZ=              2.8513   YZ=              0.9223
 Traceless Quadrupole moment (field-independent basis, Debye-Ang):
   XX=             26.8255   YY=            -14.1472   ZZ=            -12.6783
   XY=            -10.5527   XZ=              2.8513   YZ=              0.9223
 Octapole moment (field-independent basis, Debye-Ang**2):
  XXX=             22.5433  YYY=             26.6353  ZZZ=             -1.1728  XYY=             -1.6897
  XXY=             -9.6768  XXZ=              3.3115  XZZ=             13.3563  YZZ=              3.5937
  YYZ=             -8.9734  XYZ=             -3.5761
 Hexadecapole moment (field-independent basis, Debye-Ang**3):
 XXXX=          -2442.4720 YYYY=          -1717.6026 ZZZZ=           -290.7412 XXXY=            -69.3477
 XXXZ=             94.1655 YYYX=            -66.5472 YYYZ=             -7.8408 ZZZX=             -6.1236
 ZZZY=             10.2937 XXYY=           -768.7675 XXZZ=           -597.9609 YYZZ=           -339.6298
 XXYZ=              1.0103 YYXZ=            -15.1157 ZZXY=             14.4464
 N-N= 1.422516365298D+03 E-N=-5.695019768119D+03  KE= 1.205063705951D+03
 Calling FoFJK, ICntrl=      2127 FMM=F ISym2X=0 I1Cent= 0 IOpClX= 0 NMat=1 NMatS=1 NMatT=0.
 ***** Axes restored to original set *****
 -------------------------------------------------------------------
 Center     Atomic                   Forces (Hartrees/Bohr)
 Number     Number              X              Y              Z
 -------------------------------------------------------------------
      1        6          -0.030053942   -0.022249727    0.008093073
      2        6          -0.065658381    0.071998112   -0.004281371
      3        6          -0.025327296   -0.000273901   -0.001916683
      4        6           0.018647282   -0.022792389    0.000296216
      5        6          -0.017439248    0.002295723   -0.003670106
      6        6           0.040281712   -0.000609739    0.005003682
      7        1           0.008582025    0.007919096    0.002522380
      8        1           0.002125187   -0.012307193   -0.002114789
      9        6          -0.030488739    0.016604062   -0.000086513
     10        6          -0.003306570    0.013319015    0.006501632
     11        6          -0.007326259    0.030752064   -0.003629779
     12        8           0.064879895   -0.061855458    0.005923713
     13        1          -0.019475003   -0.004110467   -0.002840114
     14        8           0.000746819   -0.063442937    0.007654987
     15        1          -0.006910793    0.010540725    0.001439730
     16        8           0.039157805    0.047062977   -0.000096819
     17        1          -0.007135108    0.014255857    0.000004207
     18        1           0.010398556   -0.004306199    0.002019218
     19        8           0.000606963    0.021702665    0.008572250
     20        8          -0.003265099    0.014418682    0.028316577
     21       16           0.009314437   -0.062016109   -0.058897769
     22        7          -0.000419866    0.045156431    0.004354284
     23        6           0.016113862   -0.018723867    0.006322251
     24        1           0.003220483   -0.009955618    0.006909807
     25        1          -0.005765433    0.001483044   -0.017969045
     26        1           0.008496713   -0.014864850    0.001568981
 -------------------------------------------------------------------
 Cartesian Forces:  Max     0.071998112 RMS     0.024429787

 GradGradGradGradGradGradGradGradGradGradGradGradGradGradGradGradGradGrad
 Berny optimization.
 FormGI is forming the generalized inverse of G from B-inverse, IUseBI=4.
 Internal  Forces:  Max     0.080034453 RMS     0.020146437
 Search for a local minimum.
 Step number   1 out of a maximum of  143
 All quantities printed in internal units (Hartrees-Bohrs-Radians)
 Mixed Optimization -- RFO/linear search
 Second derivative matrix not updated -- first step.
 ITU=  0
     Eigenvalues ---    0.00237   0.00590   0.00721   0.00766   0.00993
     Eigenvalues ---    0.01097   0.01295   0.01295   0.01555   0.01689
     Eigenvalues ---    0.02004   0.02068   0.02145   0.02233   0.02297
     Eigenvalues ---    0.02379   0.02442   0.02457   0.03600   0.07537
     Eigenvalues ---    0.07537   0.07792   0.10996   0.12478   0.14195
     Eigenvalues ---    0.15999   0.15999   0.16000   0.16000   0.16000
     Eigenvalues ---    0.16000   0.16000   0.16000   0.16000   0.16675
     Eigenvalues ---    0.20256   0.21995   0.22485   0.23195   0.24482
     Eigenvalues ---    0.24991   0.24996   0.24999   0.25000   0.25000
     Eigenvalues ---    0.26572   0.28519   0.29256   0.33220   0.35730
     Eigenvalues ---    0.35740   0.37230   0.37230   0.37230   0.37230
     Eigenvalues ---    0.37230   0.37230   0.37230   0.39602   0.40989
     Eigenvalues ---    0.40989   0.41492   0.43596   0.45416   0.49797
     Eigenvalues ---    0.52852   0.54021   0.55473   0.55473   0.80209
     Eigenvalues ---    0.87694   0.87694
 RFO step:  Lambda=-1.35149658D-01 EMin= 2.36824235D-03
 Linear search not attempted -- first point.
 Maximum step size (   0.300) exceeded in Quadratic search.
    -- Step size scaled by   0.574
 Iteration  1 RMS(Cart)=  0.14507890 RMS(Int)=  0.00570571
 Iteration  2 RMS(Cart)=  0.00960337 RMS(Int)=  0.00044663
 Iteration  3 RMS(Cart)=  0.00002561 RMS(Int)=  0.00044596
 Iteration  4 RMS(Cart)=  0.00000001 RMS(Int)=  0.00044596
 Variable       Old X    -DE/DX   Delta X   Delta X   Delta X     New X
                                 (Linear)    (Quad)   (Total)
    R1        2.54358   0.03126   0.00000   0.02865   0.02897   2.57255
    R2        2.55696   0.03465   0.00000   0.03000   0.02999   2.58695
    R3        3.31838  -0.00540   0.00000  -0.00598  -0.00589   3.31250
    R4        2.64920  -0.00541   0.00000  -0.00451  -0.00448   2.64472
    R5        2.94618  -0.06407   0.00000  -0.09076  -0.09056   2.85562
    R6        2.56427   0.03318   0.00000   0.02772   0.02772   2.59199
    R7        2.02201   0.01202   0.00000   0.01359   0.01359   2.03559
    R8        2.65062   0.00199   0.00000   0.00043   0.00040   2.65103
    R9        2.02201   0.01193   0.00000   0.01349   0.01349   2.03549
   R10        2.64659  -0.00765   0.00000  -0.00815  -0.00818   2.63841
   R11        2.02201   0.01137   0.00000   0.01286   0.01286   2.03486
   R12        2.02201   0.01251   0.00000   0.01414   0.01414   2.03615
   R13        2.70650  -0.03767   0.00000  -0.04247  -0.04250   2.66400
   R14        2.70231  -0.07544   0.00000  -0.07942  -0.07942   2.62289
   R15        2.91018  -0.01597   0.00000  -0.02181  -0.02181   2.88837
   R16        2.80438   0.03300   0.00000   0.03639   0.03615   2.84053
   R17        2.37803  -0.06254   0.00000  -0.03829  -0.03829   2.33974
   R18        2.70231  -0.06494   0.00000  -0.06837  -0.06837   2.63394
   R19        1.81414   0.01705   0.00000   0.01418   0.01418   1.82832
   R20        1.81414   0.01025   0.00000   0.00852   0.00852   1.82266
   R21        2.77714  -0.00435   0.00000  -0.00246  -0.00246   2.77468
   R22        2.77714  -0.01183   0.00000  -0.00671  -0.00671   2.77043
   R23        3.18563   0.00709   0.00000   0.01016   0.00988   3.19551
   R24        2.77790   0.00784   0.00000   0.00914   0.00914   2.78704
   R25        2.02201  -0.00116   0.00000  -0.00131  -0.00131   2.02070
   R26        2.02201   0.01854   0.00000   0.02096   0.02096   2.04297
   R27        2.02201   0.01648   0.00000   0.01863   0.01863   2.04064
    A1        2.12135   0.00166   0.00000   0.00416   0.00411   2.12546
    A2        2.02396   0.00314   0.00000   0.00735   0.00757   2.03154
    A3        2.13784  -0.00481   0.00000  -0.01153  -0.01172   2.12613
    A4        2.09385  -0.00404   0.00000  -0.00427  -0.00435   2.08950
    A5        2.08563   0.00005   0.00000   0.00255   0.00287   2.08850
    A6        2.10355   0.00393   0.00000   0.00155   0.00126   2.10481
    A7        2.08734  -0.00417   0.00000  -0.00570  -0.00563   2.08171
    A8        2.09798  -0.00153   0.00000  -0.00419  -0.00423   2.09375
    A9        2.09781   0.00569   0.00000   0.00987   0.00983   2.10764
   A10        2.08843   0.00719   0.00000   0.00893   0.00896   2.09738
   A11        2.09735  -0.00304   0.00000  -0.00338  -0.00339   2.09396
   A12        2.09739  -0.00416   0.00000  -0.00556  -0.00558   2.09181
   A13        2.08420   0.00446   0.00000   0.00456   0.00455   2.08875
   A14        2.09950  -0.00101   0.00000   0.00009   0.00009   2.09959
   A15        2.09947  -0.00345   0.00000  -0.00464  -0.00464   2.09483
   A16        2.07881  -0.00512   0.00000  -0.00703  -0.00702   2.07180
   A17        2.10224   0.00124   0.00000   0.00095   0.00094   2.10318
   A18        2.10207   0.00386   0.00000   0.00605   0.00604   2.10811
   A19        2.13920   0.02034   0.00000   0.02793   0.02786   2.16706
   A20        2.07220  -0.04146   0.00000  -0.06066  -0.06063   2.01157
   A21        2.07159   0.02110   0.00000   0.03264   0.03266   2.10425
   A22        2.07634  -0.06772   0.00000  -0.09745  -0.09723   1.97911
   A23        2.13032  -0.01236   0.00000  -0.02555  -0.02614   2.10418
   A24        2.07646   0.08003   0.00000   0.12276   0.12292   2.19938
   A25        2.09440  -0.00545   0.00000  -0.00812  -0.00822   2.08617
   A26        2.09440   0.04198   0.00000   0.06255   0.06244   2.15684
   A27        2.09440  -0.03653   0.00000  -0.05443  -0.05453   2.03987
   A28        1.91063  -0.00851   0.00000  -0.01655  -0.01655   1.89409
   A29        1.91063  -0.01494   0.00000  -0.02905  -0.02905   1.88158
   A30        1.91198   0.00413   0.00000   0.00292   0.00281   1.91479
   A31        1.93640  -0.00806   0.00000  -0.01930  -0.02003   1.91637
   A32        1.86222  -0.01997   0.00000  -0.03502  -0.03570   1.82652
   A33        1.90401   0.02227   0.00000   0.05695   0.05703   1.96104
   A34        1.89543   0.00127   0.00000   0.00589   0.00571   1.90114
   A35        1.95290  -0.00025   0.00000  -0.01283  -0.01374   1.93916
   A36        1.87092   0.00605   0.00000   0.01800   0.01945   1.89036
   A37        1.93292   0.04546   0.00000   0.09653   0.09749   2.03040
   A38        1.91402  -0.04151   0.00000  -0.07447  -0.07518   1.83884
   A39        1.91063   0.00225   0.00000   0.00476   0.00461   1.91524
   A40        1.91063   0.00852   0.00000   0.01848   0.01841   1.92905
   A41        1.91063  -0.01022   0.00000  -0.02217  -0.02217   1.88846
   A42        1.91063   0.00196   0.00000   0.00840   0.00820   1.91883
   A43        1.91063  -0.00211   0.00000  -0.00792  -0.00801   1.90263
   A44        1.91063  -0.00039   0.00000  -0.00154  -0.00145   1.90918
    D1        0.18148  -0.00006   0.00000  -0.00484  -0.00475   0.17673
    D2       -2.94136   0.00358   0.00000   0.00549   0.00562  -2.93574
    D3       -2.95166   0.00041   0.00000  -0.00163  -0.00141  -2.95307
    D4        0.20869   0.00405   0.00000   0.00869   0.00895   0.21765
    D5       -0.12169  -0.00063   0.00000   0.00147   0.00141  -0.12028
    D6        3.03156   0.00079   0.00000   0.00453   0.00452   3.03608
    D7        3.01088  -0.00109   0.00000  -0.00184  -0.00200   3.00888
    D8       -0.11905   0.00033   0.00000   0.00121   0.00111  -0.11794
    D9        1.24662  -0.00412   0.00000  -0.00692  -0.00688   1.23974
   D10       -2.93340   0.02119   0.00000   0.05365   0.05327  -2.88014
   D11       -0.80204   0.00331   0.00000   0.00403   0.00445  -0.79759
   D12       -1.88643  -0.00368   0.00000  -0.00377  -0.00363  -1.89006
   D13        0.21674   0.02163   0.00000   0.05680   0.05652   0.27325
   D14        2.34810   0.00375   0.00000   0.00719   0.00770   2.35580
   D15       -0.11708   0.00114   0.00000   0.00601   0.00592  -0.11117
   D16        3.03605   0.00222   0.00000   0.00791   0.00786   3.04391
   D17        3.00556  -0.00258   0.00000  -0.00441  -0.00453   3.00102
   D18       -0.12450  -0.00150   0.00000  -0.00251  -0.00259  -0.12708
   D19        0.23832   0.00173   0.00000   0.00483   0.00503   0.24335
   D20       -2.92505   0.00075   0.00000  -0.00007   0.00010  -2.92495
   D21       -2.88441   0.00548   0.00000   0.01528   0.01556  -2.86885
   D22        0.23540   0.00450   0.00000   0.01038   0.01063   0.24603
   D23       -0.00235  -0.00072   0.00000  -0.00260  -0.00261  -0.00496
   D24       -3.13803   0.00031   0.00000  -0.00024  -0.00022  -3.13824
   D25        3.12771  -0.00185   0.00000  -0.00459  -0.00467   3.12304
   D26       -0.00797  -0.00082   0.00000  -0.00223  -0.00227  -0.01025
   D27        0.05988   0.00051   0.00000  -0.00028  -0.00025   0.05963
   D28       -3.08742   0.00036   0.00000   0.00002   0.00002  -3.08739
   D29       -3.08762  -0.00051   0.00000  -0.00264  -0.00264  -3.09026
   D30        0.04826  -0.00066   0.00000  -0.00234  -0.00236   0.04590
   D31       -0.00024   0.00057   0.00000   0.00126   0.00125   0.00101
   D32        3.12969  -0.00087   0.00000  -0.00183  -0.00190   3.12779
   D33       -3.13612   0.00072   0.00000   0.00094   0.00096  -3.13516
   D34       -0.00619  -0.00072   0.00000  -0.00215  -0.00219  -0.00838
   D35       -3.14137  -0.00621   0.00000  -0.03067  -0.02991   3.11190
   D36        0.01211  -0.00155   0.00000  -0.00869  -0.00960   0.00252
   D37        0.02200  -0.00448   0.00000  -0.02466  -0.02363  -0.00163
   D38       -3.10771   0.00017   0.00000  -0.00267  -0.00332  -3.11102
   D39       -2.77004  -0.00772   0.00000  -0.02933  -0.02932  -2.79936
   D40        0.35062  -0.00863   0.00000  -0.03404  -0.03406   0.31657
   D41        0.00576  -0.00095   0.00000  -0.00312  -0.00298   0.00278
   D42       -3.13583   0.00578   0.00000   0.02425   0.02461  -3.11122
   D43        3.13583  -0.00605   0.00000  -0.02539  -0.02575   3.11009
   D44       -0.00576   0.00067   0.00000   0.00198   0.00184  -0.00392
   D45       -0.63916  -0.00694   0.00000  -0.00723  -0.00661  -0.64577
   D46       -2.72656   0.01372   0.00000   0.01691   0.01497  -2.71159
   D47        2.51432  -0.00132   0.00000   0.01620   0.01804   2.53236
   D48        0.42692   0.01935   0.00000   0.04035   0.03962   0.46654
   D49       -2.61799  -0.01108   0.00000  -0.04356  -0.04333  -2.66133
   D50        0.52360  -0.00435   0.00000  -0.01619  -0.01642   0.50718
   D51        0.96568  -0.00289   0.00000  -0.00282  -0.00314   0.96254
   D52        3.06516   0.03189   0.00000   0.08186   0.08132  -3.13671
   D53       -1.09388   0.00239   0.00000   0.00963   0.00970  -1.08418
   D54        1.00560   0.03717   0.00000   0.09431   0.09416   1.09976
   D55        3.08662  -0.02606   0.00000  -0.05725  -0.05694   3.02968
   D56       -1.09709   0.00872   0.00000   0.02743   0.02752  -1.06957
   D57       -1.06373  -0.00554   0.00000  -0.01656  -0.01768  -1.08141
   D58        1.03067   0.00345   0.00000   0.00795   0.00699   1.03766
   D59        3.12506   0.00193   0.00000   0.00380   0.00265   3.12772
   D60       -3.12506  -0.01484   0.00000  -0.05114  -0.05011   3.10801
   D61       -1.03067  -0.00585   0.00000  -0.02663  -0.02544  -1.05610
   D62        1.06373  -0.00737   0.00000  -0.03078  -0.02978   1.03395
         Item               Value     Threshold  Converged?
 Maximum Force            0.080034     0.000450     NO 
 RMS     Force            0.020146     0.000300     NO 
 Maximum Displacement     0.944442     0.001800     NO 
 RMS     Displacement     0.144950     0.001200     NO 
 Predicted change in Energy=-6.401767D-02
 GradGradGradGradGradGradGradGradGradGradGradGradGradGradGradGradGradGrad

                          Input orientation:                          
 ---------------------------------------------------------------------
 Center     Atomic      Atomic             Coordinates (Angstroms)
 Number     Number       Type             X           Y           Z
 ---------------------------------------------------------------------
      1          6           0        1.156307   -0.215335   -0.140136
      2          6           0        0.744490    1.072834    0.015611
      3          6           0        1.685656    2.075545    0.275333
      4          6           0        2.993035    1.726461    0.499504
      5          6           0        3.376949    0.377398    0.473719
      6          6           0        2.437257   -0.602622    0.148331
      7          1           0        3.726195    2.488740    0.703541
      8          1           0        2.715701   -1.642830    0.110798
      9          6           0       -0.728884    1.400786   -0.056022
     10          6           0       -1.757810    0.438995    0.004026
     11          6           0       -3.159642    1.045783   -0.049540
     12          8           0       -1.030636    2.751889   -0.155691
     13          1           0       -1.950868    2.881958    0.113235
     14          8           0       -3.290024    2.273691   -0.140242
     15          1           0        1.377206    3.107056    0.309733
     16          8           0       -4.329422    0.292118    0.030083
     17          1           0       -5.021670    0.771382   -0.440425
     18          1           0        4.392032    0.097066    0.698498
     19          8           0       -0.306930   -1.069464   -2.163483
     20          8           0        0.424354   -2.720963   -0.526187
     21         16           0       -0.036800   -1.346990   -0.747184
     22          7           0       -1.431684   -1.020923    0.151389
     23          6           0       -2.445712   -1.970939   -0.342934
     24          1           0       -3.354798   -1.846904    0.206242
     25          1           0       -2.627873   -1.816364   -1.397298
     26          1           0       -2.074065   -2.972680   -0.186444
 ---------------------------------------------------------------------
                    Distance matrix (angstroms):
                    1          2          3          4          5
     1  C    0.000000
     2  C    1.361334   0.000000
     3  C    2.387668   1.399528   0.000000
     4  C    2.748323   2.391095   1.371624   0.000000
     5  C    2.378950   2.761039   2.404898   1.402863   0.000000
     6  C    1.368954   2.385420   2.784531   2.420091   1.396188
     7  H    3.824674   3.371736   2.125533   1.077137   2.152337
     8  H    2.128947   3.357017   3.861914   3.402958   2.156451
     9  C    2.484526   1.511130   2.528853   3.777215   4.264483
    10  C    2.990153   2.581355   3.822220   4.947080   5.156565
    11  C    4.497337   3.904769   4.964157   6.214515   6.591476
    12  O    3.686107   2.449417   2.832219   4.203655   5.045907
    13  H    4.394538   3.247678   3.728389   5.091812   5.898170
    14  O    5.095598   4.212322   4.996935   6.339209   6.958550
    15  H    3.359979   2.150557   1.077190   2.133767   3.387757
    16  O    5.511780   5.133645   6.278688   7.476368   7.719602
    17  H    6.263480   5.792015   6.870325   8.125954   8.457404
    18  H    3.357204   3.837059   3.379042   2.156784   1.076803
    19  O    2.639040   3.231621   4.450765   5.079219   4.755966
    20  O    2.638742   3.845637   5.023923   5.237341   4.395165
    21  S    1.752899   2.654772   3.965620   4.492241   4.014698
    22  N    2.726107   3.022910   4.395598   5.219908   5.018182
    23  C    4.012209   4.423856   5.815883   6.630267   6.331271
    24  H    4.809581   5.036405   6.387218   7.290399   7.094751
    25  H    4.296949   4.660108   6.045757   6.909708   6.661170
    26  H    4.247399   4.934700   6.311364   6.944634   6.432138
                    6          7          8          9         10
     6  C    0.000000
     7  H    3.395017   0.000000
     8  H    1.077484   4.294451   0.000000
     9  C    3.752313   4.648473   4.599630   0.000000
    10  C    4.324856   5.896193   4.935352   1.409730   0.000000
    11  C    5.837950   7.075591   6.463281   2.456553   1.528460
    12  O    4.834404   4.840968   5.780970   1.387972   2.429767
    13  H    5.603496   5.721199   6.500044   1.927631   2.453011
    14  O    6.415466   7.070046   7.174322   2.707119   2.394703
    15  H    3.861537   2.460721   4.938882   2.735095   4.127994
    16  O    6.826601   8.376852   7.306456   3.768346   2.575935
    17  H    7.607240   8.987942   8.123987   4.355677   3.310709
    18  H    2.147882   2.482634   2.486507   5.337862   6.198368
    19  O    3.618423   6.094813   3.825886   3.274382   3.013071
    20  O    2.999019   6.289307   2.611205   4.305790   3.876635
    21  S    2.734408   5.565748   2.898261   2.916669   2.591512
    22  N    3.891489   6.263091   4.193950   2.530143   1.503142
    23  C    5.094803   7.686110   5.191696   3.794516   2.530094
    24  H    5.924482   8.317787   6.074678   4.184698   2.795818
    25  H    5.433017   7.957488   5.555020   3.969286   2.794166
    26  H    5.106983   8.016370   4.979831   4.577524   3.431592
                   11         12         13         14         15
    11  C    0.000000
    12  O    2.730335   0.000000
    13  H    2.204352   0.967505   0.000000
    14  O    1.238138   2.309490   1.492508   0.000000
    15  H    4.996089   2.477997   3.341460   4.762353   0.000000
    16  O    1.393821   4.119099   3.517343   2.244101   6.369276
    17  H    1.922300   4.464508   3.767080   2.312063   6.853008
    18  H    7.647706   6.097792   6.952017   8.028398   4.277892
    19  O    4.132915   4.376953   4.847650   4.916202   5.137746
    20  O    5.221167   5.675066   6.119090   6.236355   5.964268
    21  S    3.995524   4.258918   4.721014   4.905219   4.791138
    22  N    2.701386   3.806475   3.937447   3.793806   4.995512
    23  C    3.113903   4.933823   4.899344   4.332532   6.389578
    24  H    2.910524   5.165426   4.933741   4.135644   6.851590
    25  H    3.207977   4.996167   4.981393   4.329802   6.572265
    26  H    4.164764   5.818967   5.863597   5.385638   7.008612
                   16         17         18         19         20
    16  O    0.000000
    17  H    0.964510   0.000000
    18  H    8.749205   9.506294   0.000000
    19  O    4.779757   5.346626   5.624231   0.000000
    20  O    5.655659   6.470162   5.018327   2.437819   0.000000
    21  S    4.660196   5.424991   4.877484   1.468296   1.466051
    22  N    3.183658   4.055934   5.955241   2.574113   2.606553
    23  C    2.967985   3.763694   7.219139   2.949821   2.972103
    24  H    2.357189   3.170499   8.002169   3.938211   3.947458
    25  H    3.062415   3.652711   7.571832   2.555714   3.300488
    26  H    3.973968   4.771884   7.212273   3.263997   2.533947
                   21         22         23         24         25
    21  S    0.000000
    22  N    1.690992   0.000000
    23  C    2.521029   1.474836   0.000000
    24  H    3.488273   2.093710   1.069307   0.000000
    25  H    2.712308   2.112351   1.081092   1.760879   0.000000
    26  H    2.666036   2.082340   1.079858   1.749814   1.763501
                   26
    26  H    0.000000
 Stoichiometry    C10H9NO5S
 Framework group  C1[X(C10H9NO5S)]
 Deg. of freedom    72
 Full point group                 C1      NOp   1
 Largest Abelian subgroup         C1      NOp   1
 Largest concise Abelian subgroup C1      NOp   1
                         Standard orientation:                         
 ---------------------------------------------------------------------
 Center     Atomic      Atomic             Coordinates (Angstroms)
 Number     Number       Type             X           Y           Z
 ---------------------------------------------------------------------
      1          6           0       -1.590702   -0.292880   -0.052991
      2          6           0       -1.152538    0.993897    0.020817
      3          6           0       -2.078462    2.043344    0.018451
      4          6           0       -3.405494    1.766462   -0.190532
      5          6           0       -3.824738    0.445018   -0.405112
      6          6           0       -2.895998   -0.595039   -0.333949
      7          1           0       -4.127399    2.565853   -0.197722
      8          1           0       -3.200735   -1.617700   -0.483179
      9          6           0        0.331086    1.277264    0.066379
     10          6           0        1.327933    0.329223   -0.241602
     11          6           0        2.746900    0.890685   -0.155098
     12          8           0        0.675370    2.577445    0.409110
     13          1           0        1.582460    2.742655    0.115922
     14          8           0        2.916222    2.074646    0.165139
     15          1           0       -1.743845    3.056374    0.167251
     16          8           0        3.889025    0.148232   -0.450146
     17          1           0        4.619454    0.514498    0.062301
     18          1           0       -4.858164    0.230877   -0.618843
     19          8           0       -0.041388   -1.551134    1.673553
     20          8           0       -0.908339   -2.837196   -0.207244
     21         16           0       -0.397571   -1.541000    0.249150
     22          7           0        0.953641   -1.067891   -0.650765
     23          6           0        1.966814   -2.112884   -0.412833
     24          1           0        2.847008   -1.898436   -0.980889
     25          1           0        2.211627   -2.171128    0.638563
     26          1           0        1.559321   -3.058248   -0.738918
 ---------------------------------------------------------------------
 Rotational constants (GHZ):           0.6843528           0.4033005           0.2727141
 Standard basis: 6-31+G(d,p) (6D, 7F)
 There are   372 symmetry adapted cartesian basis functions of A   symmetry.
 There are   372 symmetry adapted basis functions of A   symmetry.
   372 basis functions,   631 primitive gaussians,   372 cartesian basis functions
    66 alpha electrons       66 beta electrons
       nuclear repulsion energy      1425.2012492064 Hartrees.
 NAtoms=   26 NActive=   26 NUniq=   26 SFac= 1.00D+00 NAtFMM=   60 NAOKFM=F Big=F
 Integral buffers will be    131072 words long.
 Raffenetti 2 integral format.
 Two-electron integral symmetry is turned on.
 One-electron integrals computed using PRISM.
 NBasis=   372 RedAO= T EigKep=  1.33D-06  NBF=   372
 NBsUse=   371 1.00D-06 EigRej=  7.26D-07 NBFU=   371
 Initial guess from the checkpoint file:  "/home/user/SOFTWARE/gauss/scratch/Gau-58391.chk"
 B after Tr=    -0.000000    0.000000    0.000000
         Rot=    0.999803   -0.004528    0.000489    0.019295 Ang=  -2.27 deg.
 ExpMin= 4.05D-02 ExpMax= 2.19D+04 ExpMxC= 3.30D+03 IAcc=3 IRadAn=         5 AccDes= 0.00D+00
 Harris functional with IExCor= 1009 and IRadAn=       5 diagonalized for initial guess.
 HarFok:  IExCor= 1009 AccDes= 0.00D+00 IRadAn=         5 IDoV= 1 UseB2=F ITyADJ=14
 ICtDFT=  3500011 ScaDFX=  1.000000  1.000000  1.000000  1.000000
 FoFCou: FMM=F IPFlag=           0 FMFlag=      100000 FMFlg1=           0
         NFxFlg=           0 DoJE=T BraDBF=F KetDBF=T FulRan=T
         wScrn=  0.000000 ICntrl=       500 IOpCl=  0 I1Cent=   200000004 NGrid=           0
         NMat0=    1 NMatS0=      1 NMatT0=    0 NMatD0=    1 NMtDS0=    0 NMtDT0=    0
 Petite list used in FoFCou.
 Requested convergence on RMS density matrix=1.00D-08 within 128 cycles.
 Requested convergence on MAX density matrix=1.00D-06.
 Requested convergence on             energy=1.00D-06.
 No special actions if energy rises.
 SCF Done:  E(RM06) =  -1214.98040253     A.U. after   16 cycles
            NFock= 16  Conv=0.39D-08     -V/T= 2.0081
 Calling FoFJK, ICntrl=      2127 FMM=F ISym2X=0 I1Cent= 0 IOpClX= 0 NMat=1 NMatS=1 NMatT=0.
 ***** Axes restored to original set *****
 -------------------------------------------------------------------
 Center     Atomic                   Forces (Hartrees/Bohr)
 Number     Number              X              Y              Z
 -------------------------------------------------------------------
      1        6          -0.014130419   -0.015521672    0.009650290
      2        6          -0.043289534    0.042583283   -0.004481440
      3        6          -0.010995885   -0.001142405    0.000353256
      4        6           0.010632510   -0.014333560   -0.000701946
      5        6          -0.011560641    0.003572447   -0.001860555
      6        6           0.023059744    0.000096950    0.000600120
      7        1           0.004682096    0.004644878    0.001656507
      8        1           0.000684282   -0.006672798   -0.001965109
      9        6          -0.013524815    0.026062250   -0.001960458
     10        6          -0.011200344    0.003583646    0.003225726
     11        6          -0.005834734   -0.002853338    0.003491459
     12        8           0.067078460   -0.046673222    0.007281548
     13        1          -0.016754895    0.001160747   -0.005451999
     14        8          -0.023072300   -0.025390144    0.002184537
     15        1          -0.004277642    0.005046749    0.001511764
     16        8           0.048145460   -0.005312473   -0.005697141
     17        1          -0.001826387    0.008868399    0.003484383
     18        1           0.006091633   -0.002155127    0.001176343
     19        8           0.001444825    0.013434979    0.009112304
     20        8          -0.005736268    0.011668336    0.018192516
     21       16           0.013994932   -0.040506433   -0.041973467
     22        7          -0.005050285    0.040424209   -0.000391071
     23        6           0.003225767    0.002539768    0.002031978
     24        1          -0.011177300    0.003179027    0.008709614
     25        1          -0.004526578    0.000755597   -0.010170997
     26        1           0.003918316   -0.007060094    0.001991837
 -------------------------------------------------------------------
 Cartesian Forces:  Max     0.067078460 RMS     0.017454876

 GradGradGradGradGradGradGradGradGradGradGradGradGradGradGradGradGradGrad
 Berny optimization.
 Using GEDIIS/GDIIS optimizer.
 FormGI is forming the generalized inverse of G from B-inverse, IUseBI=4.
 Internal  Forces:  Max     0.077826212 RMS     0.016452161
 Search for a local minimum.
 Step number   2 out of a maximum of  143
 All quantities printed in internal units (Hartrees-Bohrs-Radians)
 Mixed Optimization -- RFO/linear search
 Update second derivatives using D2CorX and points    1    2
 DE= -3.47D-02 DEPred=-6.40D-02 R= 5.43D-01
 TightC=F SS=  1.41D+00  RLast= 3.61D-01 DXNew= 5.0454D-01 1.0820D+00
 Trust test= 5.43D-01 RLast= 3.61D-01 DXMaxT set to 5.05D-01
 ITU=  1  0
 Use linear search instead of GDIIS.
     Eigenvalues ---    0.00237   0.00583   0.00701   0.00774   0.01007
     Eigenvalues ---    0.01084   0.01291   0.01296   0.01561   0.01691
     Eigenvalues ---    0.02011   0.02068   0.02151   0.02232   0.02298
     Eigenvalues ---    0.02380   0.02443   0.02457   0.03378   0.07412
     Eigenvalues ---    0.07663   0.08055   0.10478   0.12483   0.13542
     Eigenvalues ---    0.15664   0.15998   0.15999   0.16000   0.16000
     Eigenvalues ---    0.16000   0.16000   0.16000   0.16005   0.16689
     Eigenvalues ---    0.18498   0.21150   0.21996   0.22495   0.23346
     Eigenvalues ---    0.24493   0.24987   0.24995   0.24997   0.26008
     Eigenvalues ---    0.28374   0.29220   0.32788   0.34922   0.35732
     Eigenvalues ---    0.35871   0.37162   0.37230   0.37230   0.37230
     Eigenvalues ---    0.37230   0.37230   0.37879   0.39399   0.40983
     Eigenvalues ---    0.41541   0.43593   0.45396   0.49656   0.52118
     Eigenvalues ---    0.53572   0.55366   0.55462   0.77645   0.87558
     Eigenvalues ---    0.87684   1.22209
 RFO step:  Lambda=-9.78507489D-02 EMin= 2.36597976D-03
[...]
 9,0.00004085,-0.00020666,0.00028872,0.00026448,-0.00028434,-0.00397079
 ,-0.00220181,-0.00145720,0.00390416,-0.00376664,0.00333008,-0.00137052
 ,-0.00072460,0.00052042,0.00053460,0.00321339,0.00014909,0.00024516,-0
 .00021149,-0.00000822,0.00020193,0.00041343,-0.00013925,-0.00041067,-0
 .00025167,-0.00012647,0.00053757,0.00058508,0.00026756,0.00013193,0.00
 002499,-0.00005691,-0.00016913,-0.00008783,-0.00008194,0.05672820,-0.0
 0653225,0.00836021,-0.00873331,0.00129630,0.00035396,0.00084290,0.0005
 0285,0.00115127,0.00103196,-0.00102580,0.00064348,-0.00011726,-0.00068
 529,-0.00111474,-0.00010544,0.00209452,-0.00063632,-0.00083399,-0.0000
 2240,0.00004869,0.00000945,-0.00052906,-0.00001264,-0.00021380,0.00032
 758,0.00002099,-0.00029447,0.00189888,-0.00215509,-0.00207248,-0.00254
 977,0.00040475,0.00076187,-0.00003870,0.00137764,-0.00037680,0.0000747
 6,0.00004127,0.00034602,0.00015907,0.00000206,-0.00034549,0.00018004,0
 .00009527,0.00002755,0.00086703,0.00071504,-0.00002194,-0.00013175,-0.
 00001620,0.00008227,-0.00011657,-0.00012385,0.00004927,-0.01526367,0.1
 6428817,-0.00123795,0.01376727,-0.01295265,-0.00134525,0.00132288,-0.0
 0041244,-0.00109074,-0.00138722,0.00029061,0.00017564,-0.00046910,-0.0
 0034970,-0.00165620,-0.00025013,0.00123251,0.00002814,-0.00440239,-0.0
 0368592,0.00002778,0.00004287,-0.00035262,0.00030032,0.00053464,-0.001
 04859,-0.00142770,0.00222656,-0.00211484,0.00095592,0.00267058,-0.0003
 5448,-0.00338626,0.00044881,-0.00177262,0.00109561,-0.00285004,0.00057
 187,-0.00058661,0.00025067,-0.00048048,0.00165541,-0.00150579,0.000522
 89,-0.00029858,-0.00025276,-0.00019391,0.00161456,0.00052556,0.0010975
 2,-0.00017797,-0.00004592,-0.00037371,-0.00047838,-0.00036308,-0.00022
 479,0.02685818,-0.22864756,0.56634661,0.00954472,-0.01390273,-0.001700
 93,-0.00399452,-0.00014214,-0.00057879,0.00034927,-0.00170884,-0.00100
 783,0.00025426,-0.00083932,-0.00035483,0.00151703,-0.00075424,0.000457
 85,-0.00107274,0.00016278,0.00068892,0.00008039,-0.00014144,-0.0000886
 8,0.00120249,-0.00078131,-0.00024456,-0.00458381,-0.00250149,-0.001461
 37,-0.00104610,-0.00337732,0.00461820,0.00031465,0.00092196,0.00190377
 ,0.00080285,0.00347505,0.00003433,0.00021256,-0.00036111,0.00006523,-0
 .00097273,0.00118021,-0.00053553,-0.00041411,-0.00019865,-0.00036386,-
 0.00003569,0.00028375,-0.00012372,0.00014846,0.00006017,0.00005210,-0.
 00003148,0.00004892,0.00003242,0.01433052,0.00412772,0.00330739,0.0861
 2025,0.01441485,-0.01859582,0.00501057,-0.00828526,-0.00092872,-0.0025
 5176,0.00141303,-0.00150620,-0.00097710,-0.00003668,-0.00024087,-0.000
 00199,-0.00067608,0.00069206,-0.00028027,0.00201776,-0.00151228,-0.000
 98057,-0.00016534,0.00000263,0.00002237,-0.00192955,-0.00062198,0.0000
 3096,-0.00113347,0.00196878,0.00063548,0.00557115,0.00289571,-0.000886
 21,-0.00480878,-0.00092707,-0.00139659,0.00079960,-0.00139920,-0.00008
 344,-0.00046649,0.00028515,0.00005031,0.00209791,-0.00132935,0.0002967
 0,-0.00061217,-0.00038451,-0.00040360,0.00215725,0.00115466,0.00036644
 ,-0.00037881,-0.00015027,-0.00006925,-0.00037190,-0.00019658,-0.000199
 83,0.00548158,-0.00500724,-0.00433560,-0.12014825,0.62829833,0.0009046
 6,-0.01501557,0.00690663,-0.00246014,0.00026910,0.00078647,-0.00025817
 ,-0.00043721,-0.00130022,0.00035314,-0.00071219,-0.00004384,0.00082500
 ,0.00040496,-0.00014088,-0.00011772,-0.00044561,-0.00002433,-0.0000220
 4,-0.00008494,0.00003127,0.00006485,-0.00032390,-0.00054012,-0.0006261
 5,0.00019677,0.00008369,0.00333336,0.00100285,0.00181170,-0.00139637,-
 0.00046715,-0.00076450,0.00019863,-0.00037786,0.00009077,0.00004135,0.
 00012279,-0.00013918,0.00083854,-0.00073259,0.00017653,-0.00007251,-0.
 00001510,-0.00036805,0.00055130,0.00006804,0.00042956,-0.00008794,-0.0
 0002657,-0.00013601,-0.00005558,0.00001316,0.00001138,-0.00576045,0.03
 705640,0.00523001,0.00992432,-0.06158460,0.07285624,-0.10610646,-0.029
 84734,-0.04145143,0.01713709,-0.00778289,0.00215070,0.00164762,0.00691
 700,0.00273145,-0.00090309,0.00324047,0.00169861,-0.00353642,0.0042421
 6,-0.00164657,-0.01950894,-0.01051577,-0.01411158,-0.00022263,0.000133
 54,0.00036285,-0.00213376,-0.00065699,-0.00036651,0.01507717,0.0079713
 1,0.00436404,-0.02882579,0.03305066,-0.00798786,0.00492712,0.00021052,
 -0.00364378,-0.00280617,-0.01687902,0.00033733,-0.00190735,0.00118246,
 -0.00061155,0.00155114,-0.00284912,0.00106926,0.00174094,0.00120780,0.
 00115856,-0.00048369,-0.00207472,-0.00005569,-0.00051784,-0.00033139,-
 0.00018428,0.00045853,-0.00016184,-0.00012973,-0.07205152,0.01459599,-
 0.02976225,-0.09803288,0.10430256,-0.01188732,0.44662111,-0.02708485,-
 0.09666376,-0.03504007,-0.01424843,-0.01679400,-0.01502574,0.00291145,
 -0.00255055,-0.00337668,0.00205714,-0.00129477,0.00067772,0.00618609,0
 .00213081,-0.00013798,-0.00749673,0.01200013,0.00456305,0.00006322,-0.
 00030547,0.00036408,0.00423417,-0.00070825,0.00184024,0.00349345,-0.00
 404108,-0.00158032,0.02193564,-0.01376106,-0.01363240,0.00661580,-0.00
 427297,-0.00287376,-0.00121141,-0.00047720,0.00144838,0.00053107,-0.00
 018447,-0.00052060,-0.00128074,0.00137150,0.00121811,-0.00039664,0.000
 06609,-0.00053609,-0.00377748,-0.00154076,-0.00035275,0.00065139,0.000
 23707,0.00005763,0.00113692,0.00084989,0.00061993,0.01700464,-0.176240
 46,0.21173139,0.09766879,-0.58981550,0.05566272,-0.10825324,0.96983709
 ,-0.03745182,-0.03376737,-0.09087220,-0.00427746,-0.01125719,-0.006534
 81,0.00207118,-0.00104931,0.00546515,0.00012580,0.00114342,-0.00025741
 ,-0.00014368,-0.00123466,0.00619764,-0.00855427,0.00165745,-0.00199197
 ,0.00036887,0.00041158,-0.00053812,0.00149702,0.00039118,-0.00164235,0
 .00323042,-0.00010184,-0.00008951,0.00448727,-0.02076779,-0.00559192,0
 .00436105,0.00146862,0.00359089,-0.00084038,0.00554103,-0.00085694,0.0
 0056541,-0.00074241,0.00083256,-0.00446310,0.00411697,-0.00082051,-0.0
 0011420,0.00018681,0.00061277,-0.00357563,-0.00022562,-0.00205742,0.00
 059020,0.00036808,0.00076464,0.00061588,0.00009181,0.00061051,-0.03764
 693,0.20027312,-0.53448704,-0.01452990,0.06294150,-0.08915417,0.022703
 38,-0.21664615,0.82415849,-0.02192229,0.00804543,0.01580024,0.00044725
 ,0.00178918,0.00029062,-0.00044891,-0.00055452,-0.00057444,-0.00002683
 ,-0.00127521,-0.00045787,-0.00002529,0.00170231,-0.00115945,-0.0016848
 2,-0.00650528,-0.00278895,0.00006368,-0.00014075,0.00002174,0.00035036
 ,-0.00026390,0.00082142,0.00255758,-0.02143958,0.00223833,-0.07397864,
 0.03570094,0.02163531,-0.00571093,0.03038384,0.00532145,-0.00007538,0.
 00239095,-0.00447440,-0.00210092,-0.00056281,0.00019351,-0.00662139,0.
 00565871,-0.00193802,-0.00024871,-0.00022107,-0.00029330,-0.00063094,0
 .00296377,0.00058751,0.00112411,0.00108673,0.00095719,-0.00048136,-0.0
 0044064,-0.00036470,-0.00121398,0.00072188,0.00120524,-0.00096687,0.00
 204698,0.00342271,-0.14255503,0.01406481,0.04673814,0.32040789,-0.0068
 0702,0.01017570,0.00023916,0.00960822,0.00042335,0.00350785,-0.0027293
 3,-0.00034266,-0.00060070,0.00167475,-0.00098883,0.00005304,-0.0007843
 0,0.00227265,0.00078493,-0.00243628,-0.00199286,-0.00109927,-0.0000630
 2,-0.00002360,-0.00003098,-0.00062807,-0.00005679,-0.00029701,0.001506
 22,-0.03274427,-0.00975866,0.02528214,-0.24619411,-0.02669578,0.007711
 02,-0.02491243,-0.00198066,-0.00241071,-0.01020277,0.00256304,-0.00240
 650,0.00111104,-0.00080323,0.00510629,-0.00019338,-0.00053537,0.000239
 08,0.00004569,0.00046471,0.00050537,0.00265542,0.00016761,-0.00073779,
 -0.00028807,0.00016526,-0.00005946,0.00001682,-0.00019521,-0.01003325,
 0.00659849,0.01574606,0.03280937,-0.01129955,-0.01230168,0.01546592,-0
 .08233452,0.00357566,-0.06719056,0.52037104,-0.00546254,-0.00425753,0.
 00469845,0.00082407,-0.00030437,-0.00451300,0.00042662,0.00103146,0.00
 017917,-0.00090660,0.00018545,0.00038188,0.00014073,-0.00077303,-0.001
 19044,0.00088945,0.00035654,0.00197635,-0.00006670,0.00003738,0.000073
 62,-0.00028039,-0.00000193,0.00004412,0.00191004,-0.01023879,-0.008453
 03,0.01313759,0.00390556,-0.05847280,-0.00001926,-0.00120161,-0.001947
 54,-0.00402552,-0.00287025,0.01232177,0.00029328,0.00067287,-0.0014760
 5,0.00048160,-0.00103225,0.00401972,0.00013906,0.00006670,0.00003567,0
 .00007988,0.00144870,-0.00005454,0.00011025,0.00014638,-0.00038088,0.0
 0014125,0.00019428,-0.00027496,0.02837512,0.00044081,-0.01509118,-0.00
 124835,0.00397419,0.00463976,0.06966869,0.00190451,-0.08549144,-0.1453
 4992,-0.07650614,0.34746415,-0.00307388,0.00082021,-0.00129775,-0.0024
 3824,0.00042523,-0.00043887,0.00094247,-0.00003143,0.00025682,-0.00065
 932,0.00045020,-0.00002306,-0.00029146,-0.00071440,-0.00020069,0.00069
 134,-0.00087640,0.00027814,0.00002433,0.00000397,0.00001283,0.00014382
 ,0.00003745,0.00000980,0.00098654,-0.00197768,0.00087097,0.00308887,-0
 .00378110,-0.00659483,0.00328413,0.00402184,-0.00022954,-0.00117681,0.
 00327574,0.00002376,0.00114559,-0.00000170,0.00027158,-0.00154238,-0.0
 0013002,0.00012223,-0.00007710,-0.00006178,-0.00004127,-0.00172655,-0.
 00119299,0.00014217,0.00001931,0.00005747,-0.00012807,-0.00001486,-0.0
 0003724,-0.00014770,-0.00098712,-0.00028117,0.00427709,-0.00204988,-0.
 00287418,0.00197030,-0.01430720,-0.01003294,0.02334302,-0.06776403,0.0
 0388094,0.02433186,0.57605597,0.00095960,-0.00146841,-0.00125395,-0.00
 114374,0.00010935,0.00025398,0.00054134,0.00024558,0.00009461,-0.00018
 693,0.00049413,0.00013072,-0.00005726,-0.00045116,0.00001172,0.0004196
 6,0.00080646,0.00054580,0.00000644,0.00002920,0.00001830,-0.00003246,0
 .00003138,-0.00010322,0.00512500,0.00091387,0.00468032,-0.00802178,-0.
 03429824,0.02402541,-0.00062902,0.00070640,0.00039793,-0.00018143,-0.0
 0021203,-0.00320841,-0.00002488,0.00007385,0.00031039,-0.00030008,-0.0
 0004835,-0.00058678,0.00006911,0.00005653,0.00007965,-0.00033663,-0.00
 048226,0.00087554,0.00002974,0.00015467,-0.00004613,0.00010468,0.00006
 915,0.00001993,0.00589480,0.00033229,-0.00548566,0.00107707,-0.0044883
 2,0.00104245,-0.01746296,0.01392469,0.00418312,0.00244862,-0.11429096,
 0.04770105,-0.03205915,0.55944980,-0.00231227,0.00165439,0.00123666,0.
 00118202,-0.00041878,0.00025795,-0.00046349,-0.00003138,-0.00032408,-0
 .00005135,-0.00029095,-0.00014459,-0.00017453,0.00048513,-0.00022173,-
 0.00096333,-0.00106899,-0.00022772,-0.00006666,-0.00004542,0.00000939,
 -0.00002493,-0.00000182,0.00020635,0.00178233,-0.00278739,0.00254070,-
 0.00839450,0.00193643,0.00337621,-0.00286412,-0.00033159,-0.00021031,-
 0.00021206,-0.00363786,-0.00155570,-0.00068932,0.00033669,0.00018399,0
 .00170491,-0.00127355,0.00001705,0.00002234,-0.00010433,0.00008502,0.0
 0130251,0.00137418,-0.00091089,-0.00016646,-0.00024004,-0.00004398,-0.
 00010521,-0.00003340,-0.00009621,0.00107153,0.00093925,0.00112665,-0.0
 0070974,0.00352912,-0.00020594,0.01509903,-0.00139815,-0.02228300,0.03
 832441,0.07008603,-0.15443445,0.00799859,0.06429036,0.48541166,0.00035
 198,-0.00033882,0.00003398,-0.00021303,-0.00010330,-0.00004495,0.00013
 733,0.00000719,0.00010369,-0.00004614,0.00015255,0.00006585,-0.0001374
 1,-0.00014886,-0.00004119,0.00021928,0.00021718,-0.00005699,0.00000455
 ,0.00001066,-0.00000313,-0.00001238,0.00001555,-0.00002002,0.00046077,
 0.00035393,-0.00050059,-0.00007937,0.00066757,0.00022563,-0.00081588,-
 0.00084153,-0.00035221,-0.00008012,0.00013400,0.00011424,-0.00003475,-
 0.00000244,-0.00007624,0.00009045,0.00033376,0.00018099,0.00001872,0.0
 0002795,-0.00000697,0.00024259,0.00057584,-0.00015940,0.00006538,0.000
 01623,-0.00005102,0.00001489,-0.00000043,0.00001392,-0.00064798,-0.000
 13234,0.00018346,0.00001230,0.00003549,-0.00061707,0.00171356,0.000137
 67,0.00182467,0.00696936,0.00202726,0.00951382,-0.13082906,-0.04031708
 ,-0.11250415,0.13305629,0.00004928,0.00021517,0.00061289,-0.00003079,-
 0.00000598,0.00012214,-0.00017368,-0.00009943,-0.00009555,0.00012300,-
 0.00009588,0.00000113,0.00002497,0.00013168,0.00005801,-0.00005369,-0.
 00002338,-0.00027090,0.00000609,-0.00000590,0.00000177,0.00003670,-0.0
 0001120,-0.00003226,-0.00088959,0.00024323,-0.00050741,0.00118389,0.00
 405488,0.00109763,0.00049854,-0.00026721,-0.00041642,0.00017382,0.0000
 8435,0.00007905,-0.00002878,-0.00005080,-0.00000035,0.00000145,0.00018
 599,0.00011798,-0.00001138,-0.00000786,-0.00000895,0.00001145,-0.00011
 219,0.00007026,0.00000269,-0.00002068,0.00001232,-0.00000767,-0.000015
 62,0.00002378,-0.00050454,-0.00016170,0.00017355,0.00032864,0.00043419
 ,0.00000661,0.00178523,-0.00088401,-0.00063567,0.00777619,0.00087455,0
 .02243664,-0.04063003,-0.06985031,-0.05855331,0.04486665,0.06862087,0.
 00013830,-0.00056187,-0.00042827,-0.00047737,0.00027361,-0.00009237,0.
 00029691,0.00010631,0.00013432,-0.00015266,0.00019535,0.00001926,0.000
 06169,-0.00033975,-0.00004333,0.00047708,0.00015944,0.00043239,0.00000
 800,0.00000908,-0.00000016,0.00001826,0.00000145,-0.00007361,0.0000294
 4,0.00015512,-0.00013846,0.00154016,-0.00440895,0.00100867,-0.00010359
 ,0.00042707,0.00002660,-0.00005826,0.00113167,-0.00016650,0.00024040,-
 0.00003782,0.00003973,-0.00030463,0.00005150,0.00003106,-0.00000781,0.
 00001908,-0.00002181,-0.00000039,-0.00014998,0.00015716,0.00000869,0.0
 0002618,0.00001936,0.00003452,0.00002390,-0.00001957,0.00178289,0.0001
 8898,-0.00066150,0.00079336,-0.00109537,0.00071700,-0.00804544,0.00295
 022,0.00018743,-0.00383536,0.00472373,-0.03248962,-0.11166870,-0.05736
 939,-0.19607255,0.11965963,0.05324410,0.22455562,-0.00013396,0.0000906
 2,0.00012998,-0.00003961,0.00006417,0.00004336,0.00000319,-0.00002820,
 -0.00000102,-0.00000604,-0.00002244,-0.00002561,0.00001503,-0.00000466
 ,0.00001868,0.00005914,-0.00013226,-0.00003649,-0.00000119,-0.00000532
 ,-0.00000409,0.00003083,0.00000016,-0.00000383,-0.00048694,-0.00044740
 ,-0.00031009,0.00094074,0.00096318,-0.00019036,-0.00001003,-0.00019876
 ,0.00033673,-0.00002287,0.00010763,0.00000047,0.00003620,0.00000830,0.
 00005848,0.00013427,-0.00029764,-0.00003246,-0.00002040,-0.00001370,-0
 .00000846,-0.00058433,0.00062123,-0.00077673,-0.00003683,0.00008168,-0
 .00013132,-0.00001054,-0.00000829,-0.00001219,-0.00001857,-0.00022461,
 0.00016973,-0.00016101,-0.00008080,0.00024809,0.00184543,-0.00035781,-
 0.00186565,-0.00515533,-0.00147215,0.00653459,-0.30707875,0.03670531,0
 .05250081,-0.01363170,0.00337916,0.00373920,0.32610615,-0.00077835,0.0
 0037428,0.00016401,-0.00003431,0.00013233,0.00009564,0.00003051,-0.000
 04163,0.00001789,-0.00000129,-0.00001945,-0.00002217,-0.00004612,0.000
 02874,-0.00000285,0.00004323,-0.00021827,-0.00024572,0.00000922,0.0000
 0116,-0.00000183,-0.00000556,0.00000663,0.00001038,-0.00041687,-0.0006
 1565,-0.00044944,-0.00055240,0.00107643,-0.00035893,-0.00047327,-0.001
 08498,0.00069668,-0.00000424,0.00037276,0.00021650,-0.00005190,-0.0000
 7299,-0.00000671,-0.00000359,0.00026596,-0.00002148,-0.00002329,-0.000
 00535,-0.00002715,0.00054881,-0.00026353,0.00031380,0.00019824,0.00011
 169,0.00006537,-0.00002784,-0.00003331,0.00000636,-0.00074008,0.000470
 18,0.00092099,0.00080251,0.00146656,-0.00130454,0.00134636,-0.00513993
 ,0.00059101,-0.02055910,-0.00085413,0.01245184,0.04025643,-0.04915378,
 -0.01127983,-0.00974275,0.00099243,0.00115509,-0.03789814,0.05237230,0
 .00070790,-0.00077794,-0.00011299,-0.00011956,-0.00002002,0.00003478,0
 .00005093,0.00010891,0.00008986,-0.00001746,0.00010928,0.00002829,0.00
 004247,-0.00013229,-0.00001191,0.00026413,0.00039947,0.00022995,-0.000
 00632,0.00000682,0.00000129,-0.00002425,-0.00000010,-0.00004655,0.0002
 0979,0.00071197,0.00015900,-0.00051812,-0.00141300,0.00022436,0.001966
 70,0.00194745,0.00056310,0.00001648,-0.00027230,-0.00011426,0.00007387
 ,0.00001388,0.00003904,-0.00039586,-0.00057124,-0.00027724,0.00002302,
 0.00001841,0.00001701,-0.00097998,-0.00068419,-0.00038170,-0.00020730,
 -0.00013712,0.00005256,0.00003080,0.00002535,0.00003299,0.00104514,0.0
 0016413,-0.00205917,0.00048298,-0.00065404,0.00037238,-0.00179172,0.00
 409334,-0.00060532,0.02964836,-0.00072963,-0.01470350,0.04586428,-0.00
 705667,-0.05256376,-0.02294944,0.00345000,0.00624546,-0.05971505,0.001
 95668,0.06441627,-0.00018948,0.00026908,-0.00006332,0.00022813,-0.0000
 1337,0.00013044,0.00000427,0.00006211,0.00004481,0.00000670,0.00003769
 ,0.00001701,-0.00004347,0.00001721,-0.00002245,-0.00004057,-0.00001556
 ,0.00002468,0.00000160,0.00000888,0.00000358,-0.00007836,-0.00000938,0
 .00001388,0.00031525,-0.00011213,0.00003027,-0.00055430,-0.00092001,0.
 00111208,-0.00022281,-0.00031056,0.00022304,-0.00008666,-0.00010015,-0
 .00016737,0.00000248,0.00000886,0.00001639,0.00000990,-0.00003854,-0.0
 0004521,0.00001468,0.00002019,0.00001284,-0.00004788,0.00014716,-0.000
 20412,0.00005606,0.00006189,0.00000572,0.00000840,0.00000375,-0.000002
 72,-0.00015563,0.00068675,-0.00040659,-0.00152793,0.00162959,0.0006852
 1,0.00117906,-0.00455199,0.00094069,-0.00030857,-0.00805816,0.00036138
 ,-0.05236572,0.04737205,0.00871362,0.00317039,-0.01791760,-0.00417432,
 -0.00177289,0.02812377,0.00629822,0.05239737,-0.00011816,0.00012375,0.
 00004308,0.00017276,-0.00003815,0.00005178,-0.00004098,0.00005828,0.00
 000703,0.00000753,0.00002861,0.00002412,-0.00005726,0.00004853,-0.0000
 2729,-0.00010316,-0.00002050,-0.00002010,-0.00001266,0.00000060,-0.000
 00065,-0.00004415,0.00000022,0.00000467,0.00097252,0.00036673,0.000818
 22,-0.00195305,-0.00157622,0.00259743,-0.00111732,-0.00016569,-0.00020
 398,0.00008023,-0.00079192,-0.00045389,-0.00021655,0.00005472,0.000027
 57,0.00037049,-0.00014548,-0.00006310,0.00002771,0.00000662,0.00001984
 ,0.00041105,0.00032392,0.00004914,-0.00002447,-0.00002230,0.00001384,-
 0.00000498,0.00000159,0.00000467,-0.00006581,0.00056446,-0.00036660,0.
 00190987,0.00120538,-0.00201635,0.00116329,-0.00340847,-0.00051336,0.0
 0237310,-0.01782582,0.00023153,0.04145273,-0.30265352,-0.06313478,0.00
 204806,-0.00422518,-0.00087875,-0.00082924,-0.00016847,-0.00055716,-0.
 04640155,0.32825831,0.00031260,-0.00037618,-0.00014869,-0.00015009,0.0
 0000698,-0.00021647,0.00006418,-0.00005080,0.00001405,-0.00000696,-0.0
 0003047,-0.00002116,0.00005771,-0.00005337,0.00001788,0.00005542,0.000
 01076,0.00004581,0.00000987,-0.00000239,-0.00000022,0.00003333,0.00000
 025,0.00002192,-0.00091609,0.00037344,-0.00094119,0.00347706,0.0027088
 7,-0.00274092,0.00056229,0.00014162,0.00005668,-0.00003195,0.00093401,
 0.00080125,0.00025709,-0.00004063,-0.00007433,-0.00029719,0.00008541,0
 .00007336,-0.00001915,0.00000084,-0.00003647,-0.00027036,-0.00021764,-
 0.00004966,0.00000097,0.00001307,-0.00001308,-0.00000534,-0.00000493,0
 .00000273,-0.00032875,-0.00045145,0.00019694,0.00058724,-0.00135741,-0
 .00132613,0.00033183,0.00398939,0.00085404,-0.00596977,0.02945723,0.00
 313876,0.01099707,-0.07355106,-0.06515672,0.00546349,-0.02098704,-0.00
 336633,-0.00066678,-0.00494158,-0.00162992,-0.01354773,0.06434308,0.07
 049785\\0.00001841,-0.00001303,-0.00001069,0.00001691,0.00001892,0.000
 00106,-0.00001028,-0.00000093,-0.00000167,0.00000167,-0.00000109,0.000
 00385,-0.00000349,0.00000917,0.00000182,-0.00000723,0.00000307,0.00001
 355,-0.00000225,0.00000361,0.00000200,0.00000311,0.00000137,-0.0000009
 1,-0.00001307,-0.00000685,0.00001762,-0.00001863,-0.00001920,-0.000023
 73,0.00000214,-0.00000283,0.00001479,0.00000712,-0.00000322,-0.0000037
 6,-0.00002065,0.00001034,-0.00000259,-0.00000341,-0.00001489,-0.000006
 30,-0.00000303,0.00000283,0.00000228,0.00001523,0.00001475,0.00000163,
 -0.00000015,-0.00000168,-0.00000181,-0.00000084,0.00000045,0.00000264,
 -0.00001255,0.00000387,0.00000991,-0.00000620,-0.00001786,0.00000004,0
 .00001037,-0.00000335,0.00000124,0.00000953,0.00001506,0.00000500,0.00
 001343,-0.00001343,-0.00001223,-0.00000709,-0.00000627,0.00000179,-0.0
 0000112,0.00001061,-0.00000385,0.00001209,0.00001057,-0.00001169\\\@
 The archive entry for this job was punched.


 MUD THROWN IS GROUND LOST -- FROM A TEA BAG
 Job cpu time:       0 days  7 hours 56 minutes 59.3 seconds.
 Elapsed time:       0 days  0 hours 12 minutes 35.0 seconds.
 File lengths (MBytes):  RWF=    389 Int=      0 D2E=      0 Chk=     12 Scr=      1
 Normal termination of Gaussian 16 at Tue May 16 00:06:59 2023.
