 Entering Gaussian System, Link 0=/home/user/SOFTWARE/gauss/g16/g16
 Input=/home/user/WorkIMPORTANT/Joydeep/I-M2/0/I-M2.gjf
 Output=/home/user/WorkIMPORTANT/Joydeep/I-M2/0/I-M2.log
 Initial command:
 /home/user/SOFTWARE/gauss/g16/l1.exe "/home/user/SOFTWARE/gauss/scratch/Gau-36823.inp" -scrdir="/home/user/SOFTWARE/gauss/scratch/"
 Entering Link 1 = /home/user/SOFTWARE/gauss/g16/l1.exe PID=     36825.
  
 Copyright (c) 1988-2019, Gaussian, Inc.  All Rights Reserved.
  
 This is part of the Gaussian(R) 16 program.  It is based on
 the Gaussian(R) 09 system (copyright 2009, Gaussian, Inc.),
 the Gaussian(R) 03 system (copyright 2003, Gaussian, Inc.),
 the Gaussian(R) 98 system (copyright 1998, Gaussian, Inc.),
 the Gaussian(R) 94 system (copyright 1995, Gaussian, Inc.),
 the Gaussian 92(TM) system (copyright 1992, Gaussian, Inc.),
 the Gaussian 90(TM) system (copyright 1990, Gaussian, Inc.),
 the Gaussian 88(TM) system (copyright 1988, Gaussian, Inc.),
 the Gaussian 86(TM) system (copyright 1986, Carnegie Mellon
 University), and the Gaussian 82(TM) system (copyright 1983,
 Carnegie Mellon University). Gaussian is a federally registered
 trademark of Gaussian, Inc.
  
 This software contains proprietary and confidential information,
 including trade secrets, belonging to Gaussian, Inc.
  
 This software is provided under written license and may be
 used, copied, transmitted, or stored only in accord with that
 written license.
  
 The following legend is applicable only to US Government
 contracts under FAR:
  
                    RESTRICTED RIGHTS LEGEND
  
 Use, reproduction and disclosure by the US Government is
 subject to restrictions as set forth in subparagraphs (a)
 and (c) of the Commercial Computer Software - Restricted
 Rights clause in FAR 52.227-19.
  
 Gaussian, Inc.
 340 Quinnipiac St., Bldg. 40, Wallingford CT 06492
  
  
 ---------------------------------------------------------------
 Warning -- This program may not be used in any manner that
 competes with the business of Gaussian, Inc. or will provide
 assistance to any competitor of Gaussian, Inc.  The licensee
 of this program is prohibited from giving any competitor of
 Gaussian, Inc. access to this program.  By using this program,
 the user acknowledges that Gaussian, Inc. is engaged in the
 business of creating and licensing software in the field of
 computational chemistry and represents and warrants to the
 licensee that it is not a competitor of Gaussian, Inc. and that
 it will not use this program in any manner prohibited above.
 ---------------------------------------------------------------
  

 Cite this work as:
 Gaussian 16, Revision C.01,
 M. J. Frisch, G. W. Trucks, H. B. Schlegel, G. E. Scuseria, 
 M. A. Robb, J. R. Cheeseman, G. Scalmani, V. Barone, 
 G. A. Petersson, H. Nakatsuji, X. Li, M. Caricato, A. V. Marenich, 
 J. Bloino, B. G. Janesko, R. Gomperts, B. Mennucci, H. P. Hratchian, 
 J. V. Ortiz, A. F. Izmaylov, J. L. Sonnenberg, D. Williams-Young, 
 F. Ding, F. Lipparini, F. Egidi, J. Goings, B. Peng, A. Petrone, 
 T. Henderson, D. Ranasinghe, V. G. Zakrzewski, J. Gao, N. Rega, 
 G. Zheng, W. Liang, M. Hada, M. Ehara, K. Toyota, R. Fukuda, 
 J. Hasegawa, M. Ishida, T. Nakajima, Y. Honda, O. Kitao, H. Nakai, 
 T. Vreven, K. Throssell, J. A. Montgomery, Jr., J. E. Peralta, 
 F. Ogliaro, M. J. Bearpark, J. J. Heyd, E. N. Brothers, K. N. Kudin, 
 V. N. Staroverov, T. A. Keith, R. Kobayashi, J. Normand, 
 K. Raghavachari, A. P. Rendell, J. C. Burant, S. S. Iyengar, 
 J. Tomasi, M. Cossi, J. M. Millam, M. Klene, C. Adamo, R. Cammi, 
 J. W. Ochterski, R. L. Martin, K. Morokuma, O. Farkas, 
 J. B. Foresman, and D. J. Fox, Gaussian, Inc., Wallingford CT, 2019.
 
 ******************************************
 Gaussian 16:  ES64L-G16RevC.01  3-Jul-2019
                15-May-2023 
 ******************************************
 %mem=48GB
 %nprocshared=12
 Will use up to   12 processors via shared memory.
 --------------------------------
 # 6-31+g(d,p) pop=(full,nbo) m06
 --------------------------------
 1/38=1,172=1/1;
 2/12=2,17=6,18=5,40=1/2;
 3/5=1,6=6,7=111,11=2,25=1,30=1,74=-54/1,2,3;
 4//1;
 5/5=2,38=5/2;
 6/7=3,28=1,40=1/1,7;
 99/5=1,9=1/99;
 ----
 I-M2
 ----
 Symbolic Z-matrix:
 Charge =  0 Multiplicity = 1
 C                     2.81502   0.2673    0.00026 
 O                     2.80626  -1.0773   -0.00033 
 C                     0.76538  -0.44875  -0.00015 
 C                     1.53902   0.74046   0.00035 
 H                     1.19008   1.76148   0.00061 
 N                     1.50268  -1.53791  -0.00057 
 C                     4.14118   0.9202    0.00047 
 H                     4.02565   2.00654   0.00202 
 H                     4.71898   0.62746   0.88381 
 H                     4.71804   0.62994  -0.8843 
 N                    -0.61292  -0.60079  -0.00008 
 H                    -0.97765  -1.54996   0.0003 
 C                    -1.51244   0.42051  -0.00029 
 O                    -1.25892   1.60553  -0.00076 
 C                    -2.94601  -0.1298    0.00017 
 O                    -3.19835  -1.31249   0.00062 
 O                    -3.84794   0.84078   0.00008 
 H                    -4.7247    0.42368   0.00035 
 
                          Input orientation:                          
 ---------------------------------------------------------------------
 Center     Atomic      Atomic             Coordinates (Angstroms)
 Number     Number       Type             X           Y           Z
 ---------------------------------------------------------------------
      1          6           0        2.815018    0.267296    0.000256
      2          8           0        2.806257   -1.077298   -0.000325
      3          6           0        0.765383   -0.448753   -0.000152
      4          6           0        1.539024    0.740456    0.000351
      5          1           0        1.190082    1.761481    0.000606
      6          7           0        1.502682   -1.537905   -0.000570
      7          6           0        4.141179    0.920201    0.000470
      8          1           0        4.025646    2.006539    0.002023
      9          1           0        4.718979    0.627462    0.883806
     10          1           0        4.718042    0.629938   -0.884303
     11          7           0       -0.612923   -0.600792   -0.000082
     12          1           0       -0.977647   -1.549964    0.000298
     13          6           0       -1.512436    0.420509   -0.000286
     14          8           0       -1.258921    1.605534   -0.000756
     15          6           0       -2.946013   -0.129795    0.000172
     16          8           0       -3.198349   -1.312485    0.000620
     17          8           0       -3.847943    0.840781    0.000075
     18          1           0       -4.724697    0.423680    0.000350
 ---------------------------------------------------------------------
                    Distance matrix (angstroms):
                    1          2          3          4          5
     1  C    0.000000
     2  O    1.344623   0.000000
     3  C    2.171113   2.135471   0.000000
     4  C    1.360897   2.215877   1.418710   0.000000
     5  H    2.207489   3.266602   2.250667   1.079005   0.000000
     6  N    2.231810   1.382558   1.315242   2.278651   3.314162
     7  C    1.478170   2.402503   3.642806   2.608356   3.068668
     8  H    2.119101   3.316167   4.081394   2.790387   2.846134
     9  H    2.129659   2.710424   4.191723   3.302329   3.810401
    10  H    2.129661   2.711272   4.191516   3.301664   3.809194
    11  N    3.536150   3.452224   1.386666   2.535709   2.971727
    12  H    4.205561   3.813311   2.061752   3.402889   3.957868
    13  C    4.330165   4.571054   2.438048   3.068188   3.016921
    14  O    4.288107   4.870653   2.884077   2.928627   2.453964
    15  C    5.774700   5.829783   3.725076   4.568686   4.547989
    16  O    6.217418   6.009210   4.056748   5.163068   5.357947
    17  O    6.687596   6.925129   4.790164   5.387901   5.121463
    18  H    7.541337   7.679076   5.558967   6.271726   6.064184
                    6          7          8          9         10
     6  N    0.000000
     7  C    3.606099   0.000000
     8  H    4.350682   1.092465   0.000000
     9  H    3.976871   1.095368   1.777668   0.000000
    10  H    3.977319   1.095375   1.777643   1.768111   0.000000
    11  N    2.313864   4.991483   5.321137   5.542476   5.542177
    12  H    2.480358   5.683669   6.138539   6.162249   6.162416
    13  C    3.595319   5.675655   5.760716   6.297220   6.296364
    14  O    4.184216   5.443415   5.299760   6.121631   6.120174
    15  C    4.666226   7.164550   7.291636   7.752828   7.752240
    16  O    4.706433   7.671607   7.949970   8.199237   8.199106
    17  O    5.855539   7.989517   7.959422   8.615024   8.614098
    18  H    6.529017   8.879769   8.892353   9.487099   9.486331
                   11         12         13         14         15
    11  N    0.000000
    12  H    1.016834   0.000000
    13  C    1.360948   2.041755   0.000000
    14  O    2.298954   3.168009   1.211839   0.000000
    15  C    2.380157   2.427209   1.535571   2.420258   0.000000
    16  O    2.681592   2.233364   2.417762   3.503743   1.209309
    17  O    3.541679   3.735540   2.373020   2.699608   1.324951
    18  H    4.237479   4.235051   3.212263   3.661746   1.862807
                   16         17         18
    16  O    0.000000
    17  O    2.249117   0.000000
    18  H    2.311711   0.970912   0.000000
 Stoichiometry    C6H6N2O4
 Framework group  C1[X(C6H6N2O4)]
 Deg. of freedom    48
 Full point group                 C1      NOp   1
 Largest Abelian subgroup         C1      NOp   1
 Largest concise Abelian subgroup C1      NOp   1
                         Standard orientation:                         
 ---------------------------------------------------------------------
 Center     Atomic      Atomic             Coordinates (Angstroms)
 Number     Number       Type             X           Y           Z
 ---------------------------------------------------------------------
      1          6           0       -2.815018    0.267296   -0.000256
      2          8           0       -2.806257   -1.077298    0.000325
      3          6           0       -0.765383   -0.448753    0.000152
      4          6           0       -1.539024    0.740456   -0.000351
      5          1           0       -1.190082    1.761481   -0.000606
      6          7           0       -1.502682   -1.537905    0.000570
      7          6           0       -4.141179    0.920201   -0.000470
      8          1           0       -4.025646    2.006539   -0.002023
      9          1           0       -4.718979    0.627462   -0.883806
     10          1           0       -4.718042    0.629938    0.884303
     11          7           0        0.612923   -0.600792    0.000082
     12          1           0        0.977647   -1.549964   -0.000298
     13          6           0        1.512436    0.420509    0.000286
     14          8           0        1.258921    1.605534    0.000756
     15          6           0        2.946013   -0.129795   -0.000172
     16          8           0        3.198349   -1.312485   -0.000620
     17          8           0        3.847943    0.840781   -0.000075
     18          1           0        4.724697    0.423680   -0.000350
 ---------------------------------------------------------------------
 Rotational constants (GHZ):           2.9557061           0.4417487           0.3852340
 Standard basis: 6-31+G(d,p) (6D, 7F)
 There are   258 symmetry adapted cartesian basis functions of A   symmetry.
 There are   258 symmetry adapted basis functions of A   symmetry.
   258 basis functions,   426 primitive gaussians,   258 cartesian basis functions
    44 alpha electrons       44 beta electrons
       nuclear repulsion energy       676.5275823784 Hartrees.
 NAtoms=   18 NActive=   18 NUniq=   18 SFac= 1.00D+00 NAtFMM=   60 NAOKFM=F Big=F
 Integral buffers will be    131072 words long.
 Raffenetti 2 integral format.
 Two-electron integral symmetry is turned on.
 One-electron integrals computed using PRISM.
 NBasis=   258 RedAO= T EigKep=  7.98D-06  NBF=   258
 NBsUse=   258 1.00D-06 EigRej= -1.00D+00 NBFU=   258
 ExpMin= 4.38D-02 ExpMax= 5.48D+03 ExpMxC= 8.25D+02 IAcc=3 IRadAn=         5 AccDes= 0.00D+00
 Harris functional with IExCor= 1009 and IRadAn=       5 diagonalized for initial guess.
 HarFok:  IExCor= 1009 AccDes= 0.00D+00 IRadAn=         5 IDoV= 1 UseB2=F ITyADJ=14
 ICtDFT=  3500011 ScaDFX=  1.000000  1.000000  1.000000  1.000000
 FoFCou: FMM=F IPFlag=           0 FMFlag=      100000 FMFlg1=           0
         NFxFlg=           0 DoJE=T BraDBF=F KetDBF=T FulRan=T
         wScrn=  0.000000 ICntrl=       500 IOpCl=  0 I1Cent=   200000004 NGrid=           0
         NMat0=    1 NMatS0=      1 NMatT0=    0 NMatD0=    1 NMtDS0=    0 NMtDT0=    0
 Petite list used in FoFCou.
 Requested convergence on RMS density matrix=1.00D-08 within 128 cycles.
 Requested convergence on MAX density matrix=1.00D-06.
 Requested convergence on             energy=1.00D-06.
 No special actions if energy rises.
 SCF Done:  E(RM06) =  -642.307639080     A.U. after   15 cycles
            NFock= 15  Conv=0.56D-08     -V/T= 2.0096

 **********************************************************************

            Population analysis using the SCF Density.

 **********************************************************************

 Orbital symmetries:
       Occupied  (A) (A) (A) (A) (A) (A) (A) (A) (A) (A) (A) (A)
                 (A) (A) (A) (A) (A) (A) (A) (A) (A) (A) (A) (A)
                 (A) (A) (A) (A) (A) (A) (A) (A) (A) (A) (A) (A)
                 (A) (A) (A) (A) (A) (A) (A) (A)
       Virtual   (A) (A) (A) (A) (A) (A) (A) (A) (A) (A) (A) (A)
                 (A) (A) (A) (A) (A) (A) (A) (A) (A) (A) (A) (A)
                 (A) (A) (A) (A) (A) (A) (A) (A) (A) (A) (A) (A)
                 (A) (A) (A) (A) (A) (A) (A) (A) (A) (A) (A) (A)
                 (A) (A) (A) (A) (A) (A) (A) (A) (A) (A) (A) (A)
                 (A) (A) (A) (A) (A) (A) (A) (A) (A) (A) (A) (A)
                 (A) (A) (A) (A) (A) (A) (A) (A) (A) (A) (A) (A)
                 (A) (A) (A) (A) (A) (A) (A) (A) (A) (A) (A) (A)
                 (A) (A) (A) (A) (A) (A) (A) (A) (A) (A) (A) (A)
                 (A) (A) (A) (A) (A) (A) (A) (A) (A) (A) (A) (A)
                 (A) (A) (A) (A) (A) (A) (A) (A) (A) (A) (A) (A)
                 (A) (A) (A) (A) (A) (A) (A) (A) (A) (A) (A) (A)
                 (A) (A) (A) (A) (A) (A) (A) (A) (A) (A) (A) (A)
                 (A) (A) (A) (A) (A) (A) (A) (A) (A) (A) (A) (A)
                 (A) (A) (A) (A) (A) (A) (A) (A) (A) (A) (A) (A)
                 (A) (A) (A) (A) (A) (A) (A) (A) (A) (A) (A) (A)
                 (A) (A) (A) (A) (A) (A) (A) (A) (A) (A) (A) (A)
                 (A) (A) (A) (A) (A) (A) (A) (A) (A) (A)
 The electronic state is 1-A.
 Alpha  occ. eigenvalues --  -19.34028 -19.32790 -19.27632 -19.25344 -14.48711
 Alpha  occ. eigenvalues --  -14.47099 -10.43796 -10.40915 -10.35351 -10.35001
 Alpha  occ. eigenvalues --  -10.28445 -10.27638  -1.18844  -1.18079  -1.10423
 Alpha  occ. eigenvalues --   -1.09152  -1.00196  -0.89068  -0.83910  -0.75341
 Alpha  occ. eigenvalues --   -0.75086  -0.68036  -0.63881  -0.61271  -0.56818
 Alpha  occ. eigenvalues --   -0.54123  -0.53918  -0.52496  -0.51226  -0.50448
 Alpha  occ. eigenvalues --   -0.48596  -0.46410  -0.45078  -0.44379  -0.43847
 Alpha  occ. eigenvalues --   -0.43167  -0.41139  -0.38330  -0.37870  -0.37102
 Alpha  occ. eigenvalues --   -0.33551  -0.30358  -0.29253  -0.27810
 Alpha virt. eigenvalues --   -0.07867  -0.03756  -0.02440  -0.01585  -0.01276
 Alpha virt. eigenvalues --   -0.00156   0.00064   0.00919   0.01407   0.01617
 Alpha virt. eigenvalues --    0.03251   0.03619   0.03825   0.04466   0.04883
 Alpha virt. eigenvalues --    0.05701   0.05971   0.06556   0.08837   0.09101
 Alpha virt. eigenvalues --    0.09616   0.10025   0.11087   0.11317   0.11404
 Alpha virt. eigenvalues --    0.13989   0.14200   0.15575   0.16179   0.16322
 Alpha virt. eigenvalues --    0.16374   0.17448   0.18438   0.18468   0.19688
 Alpha virt. eigenvalues --    0.20064   0.20703   0.20903   0.21405   0.21815
 Alpha virt. eigenvalues --    0.22372   0.23779   0.23998   0.24333   0.25143
 Alpha virt. eigenvalues --    0.25248   0.27055   0.27865   0.28118   0.28333
 Alpha virt. eigenvalues --    0.28571   0.29182   0.29495   0.29652   0.30729
 Alpha virt. eigenvalues --    0.31558   0.32483   0.34198   0.35196   0.36310
 Alpha virt. eigenvalues --    0.37794   0.38261   0.41197   0.42878   0.45527
 Alpha virt. eigenvalues --    0.46663   0.48773   0.49652   0.53956   0.62137
 Alpha virt. eigenvalues --    0.62732   0.64162   0.64835   0.67052   0.68550
 Alpha virt. eigenvalues --    0.70657   0.70971   0.71819   0.72483   0.74733
 Alpha virt. eigenvalues --    0.75880   0.76577   0.82764   0.85687   0.88079
 Alpha virt. eigenvalues --    0.88194   0.89919   0.91944   0.93218   0.94115
 Alpha virt. eigenvalues --    0.96152   0.97729   0.97790   1.01257   1.01995
 Alpha virt. eigenvalues --    1.03784   1.06214   1.09752   1.11165   1.11716
 Alpha virt. eigenvalues --    1.13820   1.14927   1.16323   1.19065   1.20834
 Alpha virt. eigenvalues --    1.21577   1.23310   1.24003   1.24878   1.28750
 Alpha virt. eigenvalues --    1.29239   1.29489   1.29554   1.31965   1.33398
 Alpha virt. eigenvalues --    1.33578   1.34765   1.35318   1.38904   1.39395
 Alpha virt. eigenvalues --    1.41212   1.42588   1.44401   1.45562   1.49772
 Alpha virt. eigenvalues --    1.54590   1.55932   1.57145   1.60190   1.61372
 Alpha virt. eigenvalues --    1.65783   1.66420   1.67290   1.68434   1.71418
 Alpha virt. eigenvalues --    1.71583   1.77299   1.79515   1.82532   1.86179
 Alpha virt. eigenvalues --    1.86397   1.89497   1.90725   1.91775   1.92573
 Alpha virt. eigenvalues --    1.94102   1.98526   2.00156   2.02311   2.02930
 Alpha virt. eigenvalues --    2.03797   2.07963   2.08702   2.10534   2.11936
 Alpha virt. eigenvalues --    2.13775   2.13906   2.16866   2.23876   2.26011
 Alpha virt. eigenvalues --    2.28327   2.29640   2.32369   2.34070   2.36909
 Alpha virt. eigenvalues --    2.37261   2.40345   2.45183   2.46778   2.47956
 Alpha virt. eigenvalues --    2.49903   2.52313   2.52731   2.58428   2.60336
 Alpha virt. eigenvalues --    2.61190   2.62832   2.66164   2.69808   2.70372
 Alpha virt. eigenvalues --    2.72747   2.77788   2.81764   2.85501   2.86145
 Alpha virt. eigenvalues --    2.90222   2.94938   2.96948   2.97746   3.02894
 Alpha virt. eigenvalues --    3.07125   3.14015   3.15981   3.20744   3.23297
 Alpha virt. eigenvalues --    3.24577   3.30170   3.36436   3.42083   3.44655
 Alpha virt. eigenvalues --    3.53515   3.63500   4.13091   4.20810   4.25441
 Alpha virt. eigenvalues --    4.31807   4.33713   4.37771   4.44767   4.52164
 Alpha virt. eigenvalues --    4.60884   4.63460   4.73906   4.95238
     Molecular Orbital Coefficients:
                           1         2         3         4         5
                           O         O         O         O         O
     Eigenvalues --   -19.34028 -19.32790 -19.27632 -19.25344 -14.48711
   1 1   C  1S         -0.00006  -0.00001   0.00000   0.00000   0.00000
   2        2S         -0.00002  -0.00002   0.00001   0.00002   0.00000
   3        2PX        -0.00001  -0.00000   0.00001  -0.00001  -0.00002
   4        2PY        -0.00051  -0.00001  -0.00001   0.00001   0.00001
   5        2PZ         0.00000   0.00000  -0.00000   0.00000  -0.00000
   6        3S          0.00208   0.00025   0.00004  -0.00045  -0.00042
   7        3PX         0.00165   0.00023  -0.00023  -0.00034   0.00025
   8        3PY        -0.00015   0.00010   0.00011  -0.00005  -0.00034
   9        3PZ         0.00000  -0.00000   0.00000  -0.00000   0.00000
  10        4S          0.01105   0.02351  -0.00738  -0.00283  -0.00232
  11        4PX         0.02336   0.00338  -0.01253   0.00711   0.00461
  12        4PY        -0.01323   0.00159   0.00377  -0.00291  -0.00269
  13        4PZ         0.00001  -0.00000  -0.00000   0.00000   0.00000
  14        5XX        -0.00004  -0.00001   0.00000  -0.00004   0.00000
  15        5YY         0.00034  -0.00002  -0.00000   0.00000   0.00001
  16        5ZZ        -0.00016  -0.00001   0.00000   0.00001  -0.00001
  17        5XY        -0.00001   0.00000   0.00000  -0.00000   0.00000
  18        5XZ         0.00000   0.00000  -0.00000  -0.00000   0.00000
  19        5YZ        -0.00000  -0.00000   0.00000  -0.00000  -0.00000
  20 2   O  1S          0.99208  -0.00002   0.00000  -0.00001   0.00000
  21        2S          0.02602  -0.00002   0.00001  -0.00005   0.00002
  22        2PX         0.00102   0.00000   0.00000  -0.00001   0.00000
  23        2PY         0.00083   0.00000   0.00000  -0.00000  -0.00000
  24        2PZ        -0.00000   0.00000  -0.00000   0.00000   0.00000
  25        3S          0.01831   0.00016  -0.00003   0.00025  -0.00024
  26        3PX        -0.00110  -0.00003   0.00004   0.00007  -0.00007
  27        3PY        -0.00118  -0.00001  -0.00003   0.00005  -0.00001
  28        3PZ         0.00000  -0.00000   0.00000  -0.00000  -0.00000
  29        4S         -0.02323  -0.00088   0.00061  -0.00115  -0.00053
  30        4PX        -0.00415   0.00001   0.00013  -0.00031  -0.00020
  31        4PY         0.00151   0.00007   0.00019  -0.00026   0.00013
  32        4PZ        -0.00000   0.00000  -0.00000   0.00000   0.00000
  33        5XX        -0.00982  -0.00002   0.00001  -0.00002   0.00002
  34        5YY        -0.00987  -0.00001   0.00001  -0.00003   0.00001
  35        5ZZ        -0.00949  -0.00001   0.00001  -0.00003   0.00001
  36        5XY        -0.00001  -0.00001  -0.00000   0.00001  -0.00001
  37        5XZ        -0.00000   0.00000  -0.00000   0.00000   0.00000
  38        5YZ         0.00000   0.00000  -0.00000   0.00000  -0.00000
  39 3   C  1S         -0.00000  -0.00001  -0.00002   0.00001  -0.00000
  40        2S          0.00009  -0.00002  -0.00007   0.00003   0.00009
  41        2PX         0.00005  -0.00002  -0.00000  -0.00002   0.00039
  42        2PY         0.00002   0.00001  -0.00000  -0.00000  -0.00007
  43        2PZ         0.00000   0.00000   0.00000   0.00000  -0.00000
  44        3S         -0.00004  -0.00016   0.00047  -0.00066   0.00027
  45        3PX        -0.00084  -0.00023  -0.00017   0.00040   0.00078
  46        3PY         0.00032   0.00032   0.00028   0.00006   0.00002
  47        3PZ        -0.00000  -0.00000  -0.00000   0.00000   0.00000
  48        4S         -0.03242   0.00976   0.02161  -0.02556   0.00210
  49        4PX         0.02605   0.00629  -0.00526   0.00396   0.00386
  50        4PY        -0.00086   0.00204   0.00449  -0.00649   0.00204
  51        4PZ         0.00000   0.00000  -0.00000   0.00000   0.00000
  52        5XX        -0.00020  -0.00004  -0.00006  -0.00001   0.00026
  53        5YY        -0.00002  -0.00003  -0.00003   0.00005  -0.00001
  54        5ZZ        -0.00002  -0.00001  -0.00002   0.00002  -0.00008
  55        5XY        -0.00005  -0.00000  -0.00001   0.00006  -0.00004
  56        5XZ         0.00000   0.00000   0.00000  -0.00000  -0.00000
  57        5YZ        -0.00000   0.00000   0.00000   0.00000  -0.00000
  58 4   C  1S          0.00002   0.00001  -0.00000  -0.00000  -0.00001
  59        2S          0.00023   0.00004  -0.00000  -0.00007   0.00002
  60        2PX         0.00004   0.00000  -0.00002   0.00003   0.00002
  61        2PY         0.00005   0.00000   0.00001   0.00003   0.00000
  62        2PZ        -0.00000   0.00000   0.00000  -0.00000   0.00000
  63        3S         -0.00210  -0.00061  -0.00010   0.00046   0.00038
  64        3PX         0.00078   0.00005  -0.00004  -0.00027  -0.00028
  65        3PY         0.00076   0.00018   0.00003  -0.00057  -0.00019
  66        3PZ        -0.00000  -0.00000  -0.00000   0.00000  -0.00000
  67        4S          0.00032  -0.01621   0.00248   0.01223  -0.00355
  68        4PX        -0.00176   0.01018  -0.00323   0.00177  -0.00103
  69        4PY         0.00035   0.00263  -0.00062  -0.00282   0.00073
  70        4PZ        -0.00000   0.00000  -0.00000   0.00000  -0.00000
  71        5XX        -0.00008   0.00000  -0.00001   0.00007  -0.00006
  72        5YY        -0.00017   0.00001  -0.00000   0.00005  -0.00002
  73        5ZZ         0.00002   0.00002   0.00000   0.00001  -0.00000
  74        5XY        -0.00012  -0.00000   0.00000   0.00003   0.00002
  75        5XZ         0.00000  -0.00000  -0.00000   0.00000  -0.00000
  76        5YZ         0.00000   0.00000   0.00000  -0.00000   0.00000
  77 5   H  1S          0.00006   0.00001  -0.00000   0.00003   0.00002
  78        2S         -0.00026  -0.00008   0.00007   0.00053   0.00010
  79        3PX        -0.00003   0.00000   0.00000   0.00003   0.00002
  80        3PY        -0.00005  -0.00000  -0.00000   0.00002  -0.00002
  81        3PZ         0.00000   0.00000   0.00000   0.00000   0.00000
  82 6   N  1S         -0.00003  -0.00000  -0.00000   0.00000  -0.00016
  83        2S          0.00001  -0.00001  -0.00001   0.00000   0.00004
  84        2PX        -0.00031  -0.00000  -0.00001   0.00001  -0.00001
  85        2PY         0.00014  -0.00000  -0.00001  -0.00000  -0.00002
  86        2PZ        -0.00000  -0.00000  -0.00000   0.00000   0.00000
  87        3S         -0.00012   0.00013   0.00006   0.00010   0.00020
  88        3PX        -0.00012   0.00014   0.00019  -0.00003  -0.00029
  89        3PY         0.00022   0.00007   0.00005   0.00003   0.00015
  90        3PZ        -0.00000   0.00000   0.00000  -0.00000  -0.00000
  91        4S          0.02542   0.00148  -0.00005   0.00237   0.00173
  92        4PX        -0.00508  -0.00103  -0.00026   0.00040   0.00012
  93        4PY         0.00397   0.00004  -0.00033   0.00121  -0.00006
  94        4PZ        -0.00000  -0.00000  -0.00000   0.00000  -0.00000
  95        5XX         0.00037   0.00000  -0.00000  -0.00001  -0.00011
  96        5YY         0.00006   0.00001   0.00001  -0.00001   0.00001
  97        5ZZ        -0.00009   0.00000  -0.00000   0.00001   0.00001
  98        5XY        -0.00022   0.00001   0.00001  -0.00001  -0.00005
  99        5XZ         0.00000  -0.00000  -0.00000   0.00000   0.00000
 100        5YZ        -0.00000  -0.00000  -0.00000   0.00000   0.00000
 101 7   C  1S          0.00001  -0.00000   0.00000  -0.00000  -0.00001
 102        2S          0.00014  -0.00001   0.00002  -0.00001  -0.00004
 103        2PX         0.00003  -0.00001  -0.00001  -0.00001   0.00000
 104        2PY        -0.00003   0.00000  -0.00000   0.00001  -0.00001
 105        2PZ         0.00000  -0.00000  -0.00000  -0.00000   0.00000
 106        3S          0.00028   0.00009  -0.00023  -0.00003   0.00045
 107        3PX         0.00024   0.00001  -0.00008   0.00006   0.00025
 108        3PY        -0.00010  -0.00012   0.00011  -0.00003   0.00000
 109        3PZ        -0.00000   0.00000  -0.00000   0.00000  -0.00000
 110        4S          0.02548  -0.00085  -0.01371   0.01076   0.00716
 111        4PX         0.00408  -0.00006  -0.00214   0.00198   0.00132
 112        4PY        -0.00151   0.00013   0.00143  -0.00096  -0.00057
 113        4PZ        -0.00000   0.00000  -0.00000   0.00000   0.00000
 114        5XX        -0.00000  -0.00000  -0.00000   0.00001   0.00001
 115        5YY        -0.00007  -0.00000   0.00001  -0.00001  -0.00001
 116        5ZZ         0.00002   0.00000   0.00000  -0.00001  -0.00001
 117        5XY         0.00003  -0.00001   0.00000  -0.00000  -0.00000
 118        5XZ        -0.00000  -0.00000  -0.00000   0.00000   0.00000
 119        5YZ         0.00000   0.00000  -0.00000   0.00000  -0.00000
 120 8   H  1S         -0.00000  -0.00001  -0.00000   0.00000  -0.00002
 121        2S          0.00014   0.00012  -0.00005   0.00004  -0.00005
 122        3PX        -0.00002   0.00000   0.00000   0.00000  -0.00000
 123        3PY        -0.00001  -0.00001   0.00000  -0.00000   0.00000
 124        3PZ         0.00000  -0.00000  -0.00000   0.00000  -0.00000
 125 9   H  1S         -0.00000   0.00001   0.00001   0.00000  -0.00001
 126        2S          0.00030  -0.00016   0.00001  -0.00000   0.00003
 127        3PX         0.00004  -0.00000   0.00000  -0.00000  -0.00000
 128        3PY        -0.00004   0.00000  -0.00000   0.00000  -0.00000
 129        3PZ         0.00001  -0.00000   0.00000   0.00000   0.00000
 130 10  H  1S         -0.00000   0.00001   0.00001   0.00000  -0.00001
 131        2S          0.00030  -0.00016   0.00001  -0.00000   0.00003
 132        3PX         0.00004  -0.00000   0.00000  -0.00000  -0.00000
 133        3PY        -0.00004   0.00000  -0.00000   0.00000  -0.00000
 134        3PZ        -0.00001   0.00000  -0.00000  -0.00000  -0.00000
 135 11  N  1S         -0.00001   0.00001   0.00002   0.00003   0.99188
 136        2S         -0.00007   0.00005   0.00007   0.00016   0.03729
 137        2PX        -0.00000   0.00005   0.00005   0.00001  -0.00009
 138        2PY         0.00000   0.00001  -0.00002   0.00002   0.00011
 139        2PZ        -0.00000  -0.00000   0.00000  -0.00000  -0.00000
 140        3S          0.00061  -0.00046  -0.00052  -0.00125   0.00662
 141        3PX        -0.00048  -0.00073  -0.00029  -0.00024   0.00044
 142        3PY         0.00009  -0.00017  -0.00020  -0.00006  -0.00057
 143        3PZ         0.00000   0.00000  -0.00000   0.00000  -0.00000
 144        4S         -0.00498  -0.00002   0.00421   0.00169  -0.00607
 145        4PX         0.00128   0.00124   0.00475  -0.00033   0.00032
 146        4PY         0.00150   0.00019  -0.00127   0.00182  -0.00125
 147        4PZ        -0.00000  -0.00000  -0.00000  -0.00000  -0.00000
 148        5XX         0.00003   0.00001   0.00010   0.00018  -0.01019
 149        5YY        -0.00004   0.00005   0.00002  -0.00012  -0.01012
 150        5ZZ        -0.00003   0.00003   0.00007   0.00006  -0.00994
 151        5XY        -0.00001  -0.00002  -0.00004   0.00004  -0.00003
 152        5XZ        -0.00000  -0.00000  -0.00000  -0.00000   0.00000
 153        5YZ        -0.00000   0.00000  -0.00000  -0.00000  -0.00000
 154 12  H  1S         -0.00003   0.00002   0.00008   0.00007   0.00041
 155        2S          0.00063   0.00011  -0.00054   0.00029  -0.00109
 156        3PX        -0.00000   0.00002  -0.00004  -0.00006  -0.00004
 157        3PY         0.00002   0.00000  -0.00003   0.00003   0.00010
 158        3PZ         0.00000  -0.00000  -0.00000   0.00000   0.00000
 159 13  C  1S          0.00000   0.00001   0.00002  -0.00002   0.00001
 160        2S          0.00002   0.00014   0.00015   0.00046   0.00012
 161        2PX        -0.00002  -0.00003  -0.00000  -0.00007  -0.00029
 162        2PY         0.00001   0.00003  -0.00001   0.00024  -0.00026
 163        2PZ        -0.00000   0.00000   0.00000   0.00000  -0.00000
 164        3S         -0.00016   0.00024  -0.00061   0.00003   0.00010
 165        3PX         0.00013   0.00044  -0.00024   0.00008  -0.00051
 166        3PY        -0.00032  -0.00111  -0.00045  -0.00153  -0.00033
 167        3PZ        -0.00000  -0.00000  -0.00000  -0.00000  -0.00000
 168        4S         -0.01369  -0.00784  -0.02026   0.00245   0.00345
 169        4PX        -0.00103   0.01326  -0.00200  -0.00520   0.00221
 170        4PY         0.00247  -0.00040   0.00567   0.00325  -0.00058
 171        4PZ         0.00000  -0.00000   0.00000   0.00000  -0.00000
 172        5XX         0.00000  -0.00007   0.00005  -0.00014   0.00009
 173        5YY        -0.00000   0.00000  -0.00004  -0.00063   0.00013
 174        5ZZ         0.00001   0.00002   0.00003  -0.00019  -0.00010
 175        5XY         0.00000  -0.00001   0.00009   0.00012   0.00011
 176        5XZ         0.00000   0.00000   0.00000   0.00000   0.00000
 177        5YZ        -0.00000   0.00000  -0.00000  -0.00000   0.00000
 178 14  O  1S         -0.00000  -0.00001   0.00005   0.99212   0.00001
 179        2S         -0.00002   0.00008   0.00004   0.02611   0.00007
 180        2PX        -0.00001   0.00004   0.00001   0.00029  -0.00001
 181        2PY        -0.00001   0.00000  -0.00003  -0.00148   0.00001
 182        2PZ        -0.00000   0.00000  -0.00000  -0.00000   0.00000
 183        3S          0.00020  -0.00027   0.00002   0.01828  -0.00016
 184        3PX         0.00002  -0.00000  -0.00002  -0.00010   0.00018
 185        3PY        -0.00004  -0.00016   0.00001   0.00033   0.00013
 186        3PZ        -0.00000  -0.00000   0.00000   0.00000   0.00000
 187        4S          0.00000   0.00374   0.00088  -0.00956   0.00101
 188        4PX         0.00013   0.00093   0.00007   0.00053  -0.00029
 189        4PY        -0.00011  -0.00099  -0.00060   0.00033  -0.00043
 190        4PZ         0.00000   0.00000  -0.00000   0.00000  -0.00000
 191        5XX        -0.00001   0.00013   0.00000  -0.00950   0.00003
 192        5YY        -0.00000   0.00007   0.00004  -0.00932  -0.00009
 193        5ZZ         0.00000   0.00008   0.00002  -0.00944   0.00005
 194        5XY        -0.00000   0.00001   0.00003  -0.00006  -0.00006
 195        5XZ        -0.00000  -0.00000   0.00000  -0.00000  -0.00000
 196        5YZ        -0.00000  -0.00000  -0.00000   0.00000  -0.00000
 197 15  C  1S          0.00000  -0.00005  -0.00002   0.00001   0.00000
 198        2S          0.00001   0.00019   0.00040   0.00012   0.00010
 199        2PX         0.00003   0.00035   0.00006   0.00002   0.00003
 200        2PY         0.00000   0.00030  -0.00024   0.00002  -0.00002
 201        2PZ        -0.00000   0.00000  -0.00000  -0.00000  -0.00000
 202        3S         -0.00016   0.00054   0.00074  -0.00057  -0.00004
 203        3PX        -0.00004   0.00073   0.00030   0.00021   0.00019
 204        3PY        -0.00000  -0.00097   0.00117   0.00044   0.00091
 205        3PZ         0.00000  -0.00000   0.00000   0.00000   0.00000
 206        4S          0.00532  -0.00715   0.01806   0.00394  -0.00502
 207        4PX        -0.00085   0.00076  -0.00481  -0.00028   0.00124
 208        4PY         0.00091   0.00060  -0.00224  -0.00035  -0.00036
 209        4PZ         0.00000  -0.00000   0.00000   0.00000  -0.00000
 210        5XX         0.00000   0.00003  -0.00013   0.00003  -0.00011
 211        5YY         0.00001   0.00003  -0.00064  -0.00006  -0.00001
 212        5ZZ        -0.00000  -0.00018  -0.00021   0.00002  -0.00000
 213        5XY         0.00000   0.00013   0.00010   0.00009  -0.00002
 214        5XZ        -0.00000  -0.00000   0.00000   0.00000   0.00000
 215        5YZ         0.00000   0.00000  -0.00000  -0.00000  -0.00000
 216 16  O  1S          0.00000  -0.00006   0.99212  -0.00003   0.00001
 217        2S          0.00001   0.00020   0.02615   0.00004   0.00001
 218        2PX         0.00000   0.00001  -0.00028  -0.00002  -0.00002
 219        2PY         0.00000   0.00001   0.00146   0.00002  -0.00000
 220        2PZ         0.00000   0.00000   0.00000   0.00000   0.00000
 221        3S         -0.00001  -0.00103   0.01798   0.00004   0.00022
 222        3PX        -0.00002  -0.00012  -0.00013   0.00009  -0.00004
 223        3PY        -0.00002  -0.00037  -0.00050   0.00005   0.00013
 224        3PZ        -0.00000  -0.00000  -0.00000  -0.00000   0.00000
 225        4S          0.00025  -0.00028  -0.01061   0.00055   0.00110
 226        4PX         0.00011   0.00046   0.00121  -0.00044  -0.00031
 227        4PY         0.00007  -0.00022  -0.00041   0.00007   0.00029
 228        4PZ         0.00000   0.00000  -0.00000   0.00000   0.00000
 229        5XX        -0.00000   0.00009  -0.00947  -0.00000   0.00001
 230        5YY         0.00000  -0.00004  -0.00933   0.00005   0.00002
 231        5ZZ         0.00001   0.00012  -0.00942   0.00003   0.00004
 232        5XY         0.00000  -0.00008  -0.00007   0.00002   0.00000
 233        5XZ        -0.00000  -0.00000  -0.00000   0.00000   0.00000
 234        5YZ        -0.00000  -0.00000   0.00000  -0.00000  -0.00000
 235 17  O  1S          0.00001   0.99212   0.00012   0.00007   0.00001
 236        2S         -0.00000   0.02630   0.00017   0.00015   0.00007
 237        2PX        -0.00001   0.00029   0.00001  -0.00002  -0.00001
 238        2PY        -0.00001  -0.00129  -0.00001   0.00001  -0.00001
 239        2PZ         0.00000  -0.00000  -0.00000   0.00000  -0.00000
 240        3S          0.00003   0.01720  -0.00083  -0.00086  -0.00053
 241        3PX         0.00007  -0.00043   0.00002   0.00006   0.00015
 242        3PY         0.00001   0.00116   0.00023   0.00009   0.00009
 243        3PZ        -0.00000   0.00000   0.00000  -0.00000  -0.00000
 244        4S          0.00008  -0.00797   0.00021   0.00114  -0.00023
 245        4PX        -0.00030   0.00275   0.00056  -0.00065   0.00000
 246        4PY        -0.00015  -0.00109  -0.00015   0.00005   0.00009
 247        4PZ         0.00000  -0.00000  -0.00000   0.00000  -0.00000
 248        5XX         0.00000  -0.00950   0.00019   0.00013   0.00002
 249        5YY        -0.00000  -0.00960  -0.00010   0.00010   0.00006
 250        5ZZ        -0.00001  -0.00938   0.00008   0.00013   0.00003
 251        5XY        -0.00001  -0.00007   0.00002  -0.00004  -0.00000
 252        5XZ        -0.00000   0.00000  -0.00000  -0.00000   0.00000
 253        5YZ         0.00000  -0.00000  -0.00000   0.00000   0.00000
 254 18  H  1S         -0.00001   0.00052   0.00008  -0.00001  -0.00000
 255        2S         -0.00005  -0.00159  -0.00010   0.00018   0.00004
 256        3PX         0.00001   0.00002   0.00000   0.00001   0.00000
 257        3PY         0.00000  -0.00003  -0.00006  -0.00001   0.00000
 258        3PZ        -0.00000  -0.00000  -0.00000  -0.00000   0.00000
                           6         7         8         9        10
                           O         O         O         O         O
     Eigenvalues --   -14.47099 -10.43796 -10.40915 -10.35351 -10.35001
   1 1   C  1S         -0.00001  -0.00003  -0.00003   0.00015   0.99202
   2        2S         -0.00001  -0.00009  -0.00008   0.00007   0.05745
   3        2PX        -0.00005  -0.00001  -0.00002  -0.00002   0.00006
   4        2PY         0.00009   0.00002  -0.00000   0.00000  -0.00138
   5        2PZ        -0.00000   0.00000   0.00000   0.00000   0.00000
   6        3S         -0.00009   0.00062   0.00017  -0.00206  -0.01921
   7        3PX         0.00073   0.00059  -0.00009   0.00026  -0.00172
   8        3PY         0.00019  -0.00048  -0.00078   0.00067   0.00056
   9        3PZ         0.00000   0.00000   0.00000  -0.00000  -0.00000
  10        4S         -0.01875   0.01337   0.01087  -0.01850  -0.01832
  11        4PX        -0.01117   0.01189   0.01844  -0.00303   0.00203
  12        4PY         0.00409  -0.00422  -0.00692   0.00001  -0.00301
  13        4PZ        -0.00000   0.00000   0.00000  -0.00000   0.00000
  14        5XX         0.00001  -0.00001  -0.00004   0.00006  -0.01211
  15        5YY        -0.00010  -0.00001   0.00001  -0.00002  -0.01178
  16        5ZZ        -0.00004  -0.00004  -0.00004   0.00002  -0.01234
  17        5XY         0.00002  -0.00000   0.00000  -0.00003  -0.00003
  18        5XZ        -0.00000   0.00000  -0.00000   0.00000  -0.00000
  19        5YZ         0.00000  -0.00000  -0.00000   0.00000  -0.00000
  20 2   O  1S         -0.00003  -0.00000  -0.00000  -0.00001  -0.00000
  21        2S          0.00021  -0.00002  -0.00002  -0.00010   0.00043
  22        2PX         0.00028  -0.00001  -0.00000   0.00003  -0.00000
  23        2PY        -0.00010  -0.00001   0.00002  -0.00003   0.00011
  24        2PZ         0.00000   0.00000  -0.00000   0.00000  -0.00000
  25        3S         -0.00018  -0.00009   0.00008   0.00051  -0.00070
  26        3PX         0.00007  -0.00002   0.00010  -0.00006   0.00025
  27        3PY         0.00026  -0.00008  -0.00030   0.00053  -0.00090
  28        3PZ        -0.00000  -0.00000   0.00000  -0.00000   0.00000
  29        4S          0.00337  -0.00079  -0.00343  -0.00002   0.00596
  30        4PX         0.00044  -0.00012  -0.00109   0.00035   0.00062
  31        4PY         0.00056  -0.00079  -0.00103   0.00049   0.00593
  32        4PZ        -0.00000   0.00000   0.00000   0.00000  -0.00000
  33        5XX         0.00002  -0.00000   0.00001   0.00002   0.00036
  34        5YY         0.00011  -0.00002  -0.00003   0.00001  -0.00031
  35        5ZZ         0.00005  -0.00002   0.00000  -0.00008   0.00042
  36        5XY         0.00001  -0.00001  -0.00003   0.00004  -0.00004
  37        5XZ        -0.00000   0.00000   0.00000  -0.00000   0.00000
  38        5YZ        -0.00000   0.00000   0.00000  -0.00000   0.00000
  39 3   C  1S          0.00002  -0.00002  -0.00009   0.99198  -0.00015
  40        2S          0.00035  -0.00005  -0.00014   0.05810  -0.00005
  41        2PX        -0.00010  -0.00007   0.00002   0.00072   0.00001
  42        2PY        -0.00017   0.00002   0.00001  -0.00050   0.00003
  43        2PZ         0.00000  -0.00000   0.00000  -0.00000  -0.00000
  44        3S          0.00111  -0.00005   0.00050  -0.01924  -0.00180
  45        3PX        -0.00091   0.00124   0.00101   0.00043  -0.00116
  46        3PY        -0.00013   0.00036   0.00078  -0.00143   0.00065
  47        3PZ         0.00000  -0.00000  -0.00000   0.00000   0.00000
  48        4S         -0.00362  -0.00501   0.00023  -0.06181  -0.00685
  49        4PX        -0.01259   0.01124   0.01705  -0.00571   0.00444
  50        4PY        -0.00761  -0.00036   0.00009  -0.01684   0.00054
  51        4PZ         0.00000   0.00000  -0.00000   0.00001  -0.00000
  52        5XX        -0.00010  -0.00001   0.00002  -0.01186   0.00011
  53        5YY        -0.00021  -0.00006  -0.00004  -0.01221   0.00004
  54        5ZZ        -0.00010  -0.00003  -0.00005  -0.01250   0.00001
  55        5XY        -0.00023  -0.00003  -0.00005   0.00013  -0.00003
  56        5XZ         0.00000  -0.00000   0.00000  -0.00000   0.00000
  57        5YZ         0.00000   0.00000   0.00000  -0.00000  -0.00000
  58 4   C  1S         -0.00001   0.00000  -0.00002   0.00329   0.00510
  59        2S          0.00005   0.00002  -0.00001   0.00012   0.00010
  60        2PX        -0.00001   0.00000   0.00002   0.00008   0.00005
  61        2PY         0.00008  -0.00003   0.00004   0.00002   0.00005
  62        2PZ        -0.00000   0.00000  -0.00000  -0.00000   0.00000
  63        3S         -0.00095  -0.00017   0.00027   0.00319   0.00402
  64        3PX         0.00033  -0.00000  -0.00097   0.00095  -0.00242
  65        3PY         0.00046   0.00022  -0.00038  -0.00254  -0.00064
  66        3PZ        -0.00000  -0.00000   0.00000   0.00000  -0.00000
  67        4S          0.02429  -0.00785  -0.01718   0.05510   0.01372
  68        4PX         0.00010   0.00456  -0.00055   0.00671  -0.00832
  69        4PY        -0.00390   0.00166   0.00257  -0.00885  -0.00184
  70        4PZ         0.00000   0.00000  -0.00000   0.00001  -0.00000
  71        5XX        -0.00001  -0.00002  -0.00004   0.00001  -0.00012
  72        5YY        -0.00015   0.00003  -0.00004  -0.00009  -0.00024
  73        5ZZ        -0.00003  -0.00000  -0.00001  -0.00005  -0.00013
  74        5XY         0.00000   0.00000   0.00001  -0.00004  -0.00003
  75        5XZ         0.00000  -0.00000  -0.00000   0.00000  -0.00000
  76        5YZ         0.00000  -0.00000  -0.00000   0.00000   0.00000
  77 5   H  1S          0.00003   0.00001   0.00004   0.00005   0.00002
  78        2S         -0.00019  -0.00036   0.00042   0.00027  -0.00017
  79        3PX        -0.00003  -0.00000  -0.00000  -0.00007   0.00005
  80        3PY        -0.00002   0.00002  -0.00002   0.00000  -0.00004
  81        3PZ         0.00000  -0.00000   0.00000  -0.00000   0.00000
  82 6   N  1S          0.99208  -0.00001  -0.00003  -0.00017  -0.00001
  83        2S          0.03665  -0.00005  -0.00010   0.00006  -0.00009
  84        2PX        -0.00063  -0.00001  -0.00003   0.00000  -0.00004
  85        2PY         0.00195  -0.00001  -0.00002  -0.00001   0.00003
  86        2PZ        -0.00000   0.00000   0.00000   0.00000  -0.00000
  87        3S          0.00645   0.00059   0.00099   0.00106   0.00023
  88        3PX         0.00067   0.00016   0.00061  -0.00009   0.00080
  89        3PY        -0.00192   0.00049   0.00058   0.00017   0.00012
  90        3PZ         0.00000  -0.00000  -0.00000  -0.00000  -0.00000
  91        4S         -0.01390   0.00343   0.01141  -0.00284  -0.00192
  92        4PX        -0.00183   0.00167   0.00292  -0.00256  -0.00484
  93        4PY        -0.00056   0.00051   0.00243   0.00197  -0.00271
  94        4PZ         0.00000  -0.00000  -0.00000  -0.00000   0.00000
  95        5XX        -0.00962  -0.00002  -0.00006  -0.00005  -0.00007
  96        5YY        -0.00973   0.00003  -0.00001  -0.00017   0.00008
  97        5ZZ        -0.00963  -0.00004  -0.00006   0.00013  -0.00007
  98        5XY         0.00011   0.00003   0.00006  -0.00012  -0.00002
  99        5XZ        -0.00000  -0.00000  -0.00000   0.00000   0.00000
 100        5YZ         0.00000  -0.00000   0.00000   0.00000  -0.00000
 101 7   C  1S         -0.00000  -0.00001  -0.00001  -0.00002   0.00253
 102        2S         -0.00002  -0.00004  -0.00004  -0.00009  -0.00001
 103        2PX         0.00001   0.00000  -0.00000  -0.00001  -0.00003
 104        2PY        -0.00002   0.00001   0.00001  -0.00000  -0.00006
 105        2PZ         0.00000  -0.00000   0.00000  -0.00000   0.00000
 106        3S          0.00042   0.00050   0.00031   0.00068   0.00264
 107        3PX         0.00015   0.00024   0.00023   0.00032   0.00103
 108        3PY        -0.00005  -0.00018  -0.00002  -0.00036   0.00039
 109        3PZ        -0.00000   0.00000   0.00000   0.00000  -0.00000
 110        4S         -0.00761   0.01179   0.01970   0.00447   0.00582
 111        4PX        -0.00093   0.00192   0.00306   0.00135   0.00052
 112        4PY         0.00065  -0.00095  -0.00191  -0.00026  -0.00056
 113        4PZ        -0.00000   0.00000   0.00000   0.00000  -0.00000
 114        5XX         0.00000   0.00000   0.00001  -0.00002  -0.00022
 115        5YY         0.00001  -0.00002  -0.00002  -0.00001  -0.00017
 116        5ZZ        -0.00000  -0.00001  -0.00002  -0.00003  -0.00012
 117        5XY        -0.00001  -0.00001   0.00000  -0.00003   0.00008
 118        5XZ         0.00000   0.00000   0.00000   0.00000  -0.00000
 119        5YZ        -0.00000   0.00000   0.00000  -0.00000  -0.00000
 120 8   H  1S         -0.00000  -0.00001  -0.00001  -0.00003  -0.00011
 121        2S         -0.00012   0.00012   0.00005   0.00009  -0.00075
 122        3PX        -0.00001  -0.00000   0.00000  -0.00001   0.00002
 123        3PY         0.00001  -0.00001  -0.00001  -0.00001  -0.00000
 124        3PZ         0.00000   0.00000   0.00000   0.00000  -0.00000
 125 9   H  1S         -0.00000  -0.00001  -0.00001  -0.00001  -0.00005
 126        2S         -0.00004   0.00004   0.00012  -0.00011  -0.00021
 127        3PX         0.00000  -0.00000  -0.00000  -0.00000   0.00001
 128        3PY         0.00000   0.00000   0.00000   0.00001  -0.00001
 129        3PZ        -0.00000   0.00000   0.00001   0.00000   0.00003
 130 10  H  1S         -0.00000  -0.00001  -0.00001  -0.00001  -0.00005
 131        2S         -0.00004   0.00003   0.00012  -0.00011  -0.00021
 132        3PX         0.00000  -0.00000  -0.00000  -0.00000   0.00001
 133        3PY         0.00000   0.00000   0.00000   0.00001  -0.00001
 134        3PZ         0.00000  -0.00000  -0.00001  -0.00000  -0.00003
 135 11  N  1S          0.00015  -0.00002  -0.00014  -0.00010  -0.00003
 136        2S          0.00003  -0.00012   0.00002   0.00013  -0.00014
 137        2PX         0.00000  -0.00002  -0.00004  -0.00005   0.00003
 138        2PY        -0.00005   0.00001  -0.00001  -0.00003  -0.00000
 139        2PZ        -0.00000  -0.00000  -0.00000  -0.00000   0.00000
 140        3S          0.00058   0.00059   0.00263   0.00135   0.00149
 141        3PX         0.00035   0.00049   0.00140   0.00131  -0.00071
 142        3PY         0.00060   0.00047   0.00010   0.00059  -0.00006
 143        3PZ         0.00000   0.00000   0.00000  -0.00000  -0.00000
 144        4S          0.00598  -0.00333   0.00669   0.01314   0.00314
 145        4PX        -0.00244   0.00079   0.01483  -0.01682  -0.00496
 146        4PY        -0.00091   0.00330   0.00661   0.00210  -0.00217
 147        4PZ         0.00000  -0.00000  -0.00000   0.00000   0.00000
 148        5XX        -0.00010  -0.00003  -0.00017  -0.00044  -0.00004
 149        5YY        -0.00000   0.00002  -0.00023   0.00005  -0.00006
 150        5ZZ        -0.00001  -0.00009   0.00010   0.00011  -0.00008
 151        5XY        -0.00010   0.00003  -0.00022   0.00011  -0.00001
 152        5XZ         0.00000  -0.00000  -0.00000   0.00000   0.00000
 153        5YZ         0.00000   0.00000  -0.00000  -0.00000   0.00000
 154 12  H  1S          0.00006  -0.00007  -0.00014  -0.00006   0.00002
 155        2S         -0.00005   0.00046  -0.00048   0.00017  -0.00045
 156        3PX        -0.00003  -0.00005  -0.00002  -0.00007   0.00003
 157        3PY        -0.00003   0.00000   0.00005   0.00004  -0.00000
 158        3PZ        -0.00000  -0.00000   0.00000   0.00000  -0.00000
 159 13  C  1S          0.00001   0.00408   0.99214   0.00004  -0.00000
 160        2S          0.00005   0.00006   0.05794  -0.00013  -0.00004
 161        2PX         0.00000  -0.00006  -0.00059   0.00007   0.00000
 162        2PY         0.00001  -0.00002   0.00023   0.00007  -0.00002
 163        2PZ         0.00000  -0.00000   0.00000  -0.00000  -0.00000
 164        3S         -0.00053   0.00309  -0.01932   0.00055   0.00010
 165        3PX         0.00037   0.00361  -0.00097  -0.00075  -0.00006
 166        3PY         0.00077   0.00038   0.00550   0.00298   0.00004
 167        3PZ         0.00000  -0.00000   0.00000   0.00000   0.00000
 168        4S          0.00771   0.01847  -0.05914   0.04291   0.00415
 169        4PX        -0.00356   0.01622  -0.00856   0.00676  -0.00137
 170        4PY        -0.00097  -0.00133   0.01280  -0.00763   0.00010
 171        4PZ        -0.00000  -0.00000   0.00001  -0.00000  -0.00000
 172        5XX        -0.00002  -0.00009  -0.01223  -0.00005  -0.00007
 173        5YY         0.00005  -0.00013  -0.01121   0.00006  -0.00002
 174        5ZZ         0.00001  -0.00013  -0.01234  -0.00008  -0.00003
 175        5XY         0.00001  -0.00003   0.00001  -0.00004   0.00002
 176        5XZ         0.00000  -0.00000  -0.00000  -0.00000   0.00000
 177        5YZ         0.00000   0.00000   0.00000   0.00000  -0.00000
 178 14  O  1S          0.00001  -0.00002  -0.00007   0.00002  -0.00000
 179        2S          0.00005  -0.00008   0.00070   0.00015   0.00000
 180        2PX        -0.00000  -0.00001   0.00002   0.00002   0.00000
 181        2PY        -0.00001   0.00001  -0.00012  -0.00001   0.00001
 182        2PZ         0.00000   0.00000  -0.00000   0.00000  -0.00000
 183        3S         -0.00037   0.00002  -0.00412  -0.00144  -0.00011
 184        3PX        -0.00009  -0.00041  -0.00045  -0.00012   0.00008
 185        3PY         0.00014   0.00002   0.00185   0.00082  -0.00011
 186        3PZ         0.00000   0.00000   0.00000   0.00000   0.00000
 187        4S         -0.00035  -0.00155   0.00258  -0.00409   0.00070
 188        4PX        -0.00002  -0.00100   0.00136   0.00044  -0.00092
 189        4PY        -0.00003   0.00036  -0.00268   0.00145  -0.00005
 190        4PZ         0.00000   0.00000  -0.00000   0.00000  -0.00000
 191        5XX         0.00002  -0.00003   0.00047   0.00004   0.00001
 192        5YY         0.00001   0.00000  -0.00008  -0.00003   0.00002
 193        5ZZ         0.00004  -0.00011   0.00055   0.00007  -0.00002
 194        5XY         0.00002   0.00005   0.00016  -0.00000   0.00001
 195        5XZ         0.00000  -0.00000   0.00000  -0.00000   0.00000
 196        5YZ        -0.00000   0.00000  -0.00000  -0.00000   0.00000
 197 15  C  1S         -0.00000   0.99210  -0.00425  -0.00002  -0.00001
 198        2S         -0.00001   0.05722  -0.00045  -0.00008  -0.00007
 199        2PX         0.00000   0.00104  -0.00009   0.00002   0.00006
 200        2PY        -0.00001  -0.00021  -0.00001  -0.00000  -0.00001
 201        2PZ        -0.00000  -0.00000   0.00000  -0.00000  -0.00000
 202        3S          0.00047  -0.01622   0.00526   0.00086   0.00026
 203        3PX        -0.00010   0.00156  -0.00300  -0.00175  -0.00072
 204        3PY        -0.00043  -0.00252  -0.00101  -0.00030  -0.00012
 205        3PZ        -0.00000  -0.00000   0.00000   0.00000   0.00000
 206        4S          0.00153  -0.03325   0.03848  -0.02768  -0.00097
 207        4PX        -0.00016   0.00658  -0.00920   0.00608   0.00057
 208        4PY         0.00042  -0.00471   0.00225  -0.00277   0.00009
 209        4PZ         0.00000  -0.00000   0.00000  -0.00000  -0.00000
 210        5XX         0.00000  -0.01215  -0.00000  -0.00001  -0.00002
 211        5YY         0.00001  -0.01122   0.00004  -0.00008  -0.00003
 212        5ZZ        -0.00001  -0.01243  -0.00004  -0.00003  -0.00004
 213        5XY        -0.00000   0.00020   0.00004   0.00001  -0.00002
 214        5XZ        -0.00000  -0.00000   0.00000   0.00000  -0.00000
 215        5YZ         0.00000   0.00000   0.00000  -0.00000   0.00000
 216 16  O  1S          0.00001  -0.00009  -0.00002   0.00004   0.00000
 217        2S          0.00005   0.00061  -0.00010   0.00017   0.00002
 218        2PX        -0.00000  -0.00004  -0.00001  -0.00002   0.00001
 219        2PY         0.00001   0.00008  -0.00001  -0.00001   0.00001
 220        2PZ        -0.00000   0.00000   0.00000   0.00000   0.00000
 221        3S         -0.00040  -0.00315  -0.00017  -0.00117  -0.00019
 222        3PX         0.00004   0.00031   0.00052   0.00025   0.00004
 223        3PY        -0.00015  -0.00132  -0.00042   0.00014  -0.00002
 224        3PZ        -0.00000  -0.00000  -0.00000  -0.00000  -0.00000
 225        4S         -0.00014   0.00487  -0.00543   0.00477   0.00119
 226        4PX         0.00014  -0.00183   0.00167  -0.00199  -0.00021
 227        4PY        -0.00003   0.00221  -0.00104   0.00074   0.00037
 228        4PZ        -0.00000   0.00000  -0.00000   0.00000   0.00000
 229        5XX         0.00003   0.00043  -0.00005   0.00014   0.00001
 230        5YY         0.00002  -0.00007  -0.00006   0.00015   0.00002
 231        5ZZ         0.00003   0.00054  -0.00014   0.00005  -0.00000
 232        5XY         0.00001   0.00009   0.00006   0.00003   0.00002
 233        5XZ         0.00000   0.00000  -0.00000  -0.00000   0.00000
 234        5YZ        -0.00000  -0.00000   0.00000   0.00000  -0.00000
 235 17  O  1S         -0.00000  -0.00003  -0.00003  -0.00000   0.00000
 236        2S         -0.00000   0.00035  -0.00018  -0.00002   0.00000
 237        2PX        -0.00000  -0.00001   0.00001  -0.00001  -0.00001
 238        2PY         0.00000   0.00001   0.00002   0.00003   0.00001
 239        2PZ         0.00000   0.00000  -0.00000   0.00000   0.00000
 240        3S          0.00010  -0.00046   0.00103   0.00034   0.00004
 241        3PX         0.00001   0.00020   0.00006  -0.00001  -0.00002
 242        3PY        -0.00002   0.00042  -0.00020  -0.00031  -0.00013
 243        3PZ        -0.00000   0.00000  -0.00000  -0.00000  -0.00000
 244        4S         -0.00005   0.00662  -0.00091   0.00131   0.00057
 245        4PX        -0.00003  -0.00106   0.00029   0.00029  -0.00055
 246        4PY         0.00009  -0.00183  -0.00066  -0.00009   0.00007
 247        4PZ         0.00000  -0.00000  -0.00000   0.00000   0.00000
 248        5XX        -0.00000   0.00001  -0.00008  -0.00001   0.00001
 249        5YY        -0.00000  -0.00009  -0.00007   0.00005   0.00003
 250        5ZZ         0.00001   0.00040  -0.00014  -0.00001  -0.00000
 251        5XY        -0.00000  -0.00037  -0.00001   0.00000   0.00001
 252        5XZ        -0.00000  -0.00000  -0.00000   0.00000  -0.00000
 253        5YZ        -0.00000  -0.00000   0.00000   0.00000   0.00000
 254 18  H  1S         -0.00001   0.00015  -0.00006  -0.00003  -0.00002
 255        2S          0.00001  -0.00137   0.00013  -0.00017   0.00017
 256        3PX         0.00000  -0.00001  -0.00003  -0.00000  -0.00000
 257        3PY        -0.00000  -0.00005  -0.00005  -0.00002   0.00000
 258        3PZ        -0.00000  -0.00000  -0.00000   0.00000  -0.00000
                          11        12        13        14        15
                           O         O         O         O         O
     Eigenvalues --   -10.28445 -10.27638  -1.18844  -1.18079  -1.10423
   1 1   C  1S         -0.00276  -0.00546   0.06858   0.00374   0.00341
   2        2S         -0.00032  -0.00052  -0.12195  -0.00630  -0.00617
   3        2PX         0.00015  -0.00015  -0.02079  -0.00079   0.00122
   4        2PY        -0.00005  -0.00006   0.09994   0.00528   0.00621
   5        2PZ         0.00000   0.00000  -0.00004  -0.00000  -0.00000
   6        3S          0.00524   0.00816  -0.03131   0.00188   0.00521
   7        3PX        -0.00518   0.00555   0.02527   0.00158  -0.00023
   8        3PY         0.00388  -0.00002  -0.03114   0.00117   0.00129
   9        3PZ        -0.00000   0.00000   0.00001  -0.00000  -0.00000
  10        4S          0.03343  -0.03592  -0.40572   0.19190   0.06829
  11        4PX        -0.02481   0.01447  -0.59922  -0.06548   0.05191
  12        4PY         0.01698  -0.01021   0.14449   0.05323  -0.00869
  13        4PZ        -0.00001   0.00000  -0.00007  -0.00005   0.00001
  14        5XX        -0.00013  -0.00018   0.00697   0.00044   0.00062
  15        5YY        -0.00020  -0.00002  -0.01639  -0.00090  -0.00102
  16        5ZZ        -0.00005   0.00001   0.01074   0.00065   0.00055
  17        5XY         0.00005   0.00002   0.00354   0.00022   0.00017
  18        5XZ        -0.00000  -0.00000  -0.00000  -0.00000  -0.00000
  19        5YZ         0.00000   0.00000   0.00001   0.00000   0.00000
  20 2   O  1S         -0.00006   0.00001   0.18351   0.01002   0.01042
  21        2S         -0.00032   0.00004  -0.39570  -0.02129  -0.02284
  22        2PX        -0.00001   0.00004  -0.09857  -0.00505  -0.00275
  23        2PY        -0.00005   0.00006  -0.06498  -0.00349  -0.00412
  24        2PZ         0.00000   0.00000   0.00002   0.00000   0.00000
  25        3S          0.00183  -0.00054  -0.42556  -0.02362  -0.02479
  26        3PX         0.00039  -0.00025  -0.06108  -0.00445  -0.00305
  27        3PY         0.00067  -0.00072  -0.03791  -0.00280  -0.00343
  28        3PZ        -0.00000   0.00000   0.00001   0.00000   0.00000
  29        4S         -0.00304  -0.00477   0.21768   0.00810  -0.00088
  30        4PX        -0.00241  -0.00207   0.08819   0.00753   0.00231
  31        4PY         0.00110   0.00121  -0.01027   0.00379  -0.00130
  32        4PZ         0.00000   0.00000   0.00001   0.00000  -0.00000
  33        5XX        -0.00018   0.00009  -0.01010  -0.00058  -0.00014
  34        5YY        -0.00003   0.00005  -0.00078   0.00010  -0.00021
  35        5ZZ        -0.00023  -0.00001   0.01393   0.00094   0.00066
  36        5XY         0.00003  -0.00000   0.00051  -0.00004   0.00005
  37        5XZ        -0.00000   0.00000  -0.00000  -0.00000   0.00000
  38        5YZ        -0.00000  -0.00000   0.00001   0.00000   0.00000
  39 3   C  1S         -0.00002  -0.00348   0.04189  -0.00059  -0.02104
  40        2S         -0.00009  -0.00015  -0.07683   0.00160   0.03871
  41        2PX         0.00004   0.00008   0.04601   0.00601   0.02946
  42        2PY        -0.00003  -0.00011   0.02906   0.00125   0.00028
  43        2PZ         0.00000  -0.00000  -0.00001  -0.00000  -0.00000
  44        3S         -0.00069   0.00504  -0.01010  -0.01765  -0.01015
  45        3PX        -0.00216  -0.00544   0.01042  -0.01870  -0.01630
  46        3PY        -0.00050   0.00405   0.00325   0.01197   0.01125
  47        3PZ        -0.00000  -0.00000   0.00000  -0.00000  -0.00000
  48        4S          0.01036  -0.06758   0.24239   0.16424  -0.07934
  49        4PX        -0.00788   0.01200  -0.29558  -0.01151   0.02264
  50        4PY        -0.00170  -0.01305  -0.02105   0.02842  -0.01487
  51        4PZ        -0.00000   0.00001  -0.00001   0.00001  -0.00001
  52        5XX        -0.00004  -0.00016  -0.00391  -0.00053   0.00360
  53        5YY         0.00001  -0.00006  -0.00102  -0.00036  -0.00182
  54        5ZZ        -0.00004   0.00007   0.00599   0.00007  -0.00319
  55        5XY         0.00002   0.00010  -0.00510  -0.00029   0.00003
  56        5XZ         0.00000  -0.00000   0.00000   0.00000   0.00000
  57        5YZ        -0.00000   0.00000   0.00000   0.00000   0.00000
  58 4   C  1S         -0.00043   0.99190   0.02483   0.00097  -0.00412
  59        2S         -0.00002   0.05820  -0.04248  -0.00066   0.00657
  60        2PX        -0.00005  -0.00013   0.01685   0.00149   0.00667
  61        2PY         0.00000  -0.00058   0.03146   0.00129  -0.00243
  62        2PZ        -0.00000   0.00000  -0.00001  -0.00000   0.00000
  63        3S          0.00059  -0.02444  -0.04111  -0.01536  -0.00174
  64        3PX         0.00065   0.00238   0.00115   0.00125   0.00658
  65        3PY        -0.00127   0.00765   0.03068   0.00813   0.00533
  66        3PZ         0.00000  -0.00000  -0.00001  -0.00000  -0.00000
  67        4S          0.00042   0.06754   0.67773  -0.12141  -0.06709
  68        4PX         0.00382   0.00535  -0.10993   0.07982  -0.00043
  69        4PY        -0.00253  -0.01213  -0.08639   0.02056   0.00964
  70        4PZ         0.00000   0.00001   0.00002   0.00001   0.00000
  71        5XX        -0.00001  -0.01240  -0.00164   0.00010   0.00068
  72        5YY         0.00007  -0.01207  -0.00228  -0.00004   0.00039
  73        5ZZ        -0.00000  -0.01245   0.00308   0.00030  -0.00058
  74        5XY         0.00008   0.00022  -0.00210  -0.00025  -0.00086
  75        5XZ        -0.00000  -0.00000   0.00000   0.00000   0.00000
  76        5YZ        -0.00000  -0.00000   0.00000   0.00000  -0.00000
  77 5   H  1S          0.00006  -0.00036  -0.00422   0.00004   0.00291
  78        2S          0.00035  -0.00142  -0.01222  -0.00259  -0.00159
  79        3PX        -0.00001   0.00006   0.00045   0.00009   0.00055
  80        3PY         0.00003   0.00022   0.00052  -0.00001  -0.00014
  81        3PZ        -0.00000  -0.00000  -0.00000   0.00000   0.00000
  82 6   N  1S         -0.00003   0.00002   0.08870   0.00406  -0.00184
  83        2S         -0.00010   0.00002  -0.17565  -0.00874   0.00265
  84        2PX         0.00005  -0.00002   0.07701   0.00496   0.01060
  85        2PY        -0.00003   0.00006  -0.07678  -0.00345   0.00258
  86        2PZ         0.00000  -0.00000   0.00004   0.00000  -0.00000
  87        3S         -0.00001  -0.00068  -0.12855  -0.00007   0.01172
  88        3PX        -0.00030   0.00051   0.00873   0.00411   0.00650
  89        3PY        -0.00025  -0.00085  -0.01798   0.00010   0.00396
  90        3PZ        -0.00000   0.00000   0.00001   0.00000  -0.00000
  91        4S          0.00500   0.00554  -0.23588  -0.03288  -0.01289
  92        4PX        -0.00357  -0.00306   0.04831  -0.02198  -0.00655
  93        4PY         0.00138   0.00137  -0.03271  -0.00898  -0.00080
  94        4PZ        -0.00000  -0.00000   0.00002  -0.00000   0.00001
  95        5XX        -0.00003   0.00011  -0.01003  -0.00031  -0.00034
  96        5YY        -0.00009   0.00003  -0.00065  -0.00018   0.00000
  97        5ZZ        -0.00008   0.00000   0.01138   0.00036  -0.00046
  98        5XY        -0.00002   0.00001   0.01236   0.00097   0.00189
  99        5XZ         0.00000   0.00000  -0.00001  -0.00000  -0.00000
 100        5YZ         0.00000  -0.00000   0.00001   0.00000  -0.00000
 101 7   C  1S          0.99195   0.00043   0.00757   0.00047   0.00066
 102        2S          0.05803  -0.00002  -0.01573  -0.00063  -0.00086
 103        2PX         0.00020   0.00001  -0.00969  -0.00058  -0.00074
 104        2PY        -0.00013  -0.00001   0.00914   0.00054   0.00084
 105        2PZ         0.00000  -0.00000  -0.00000  -0.00000  -0.00000
 106        3S         -0.02137   0.00130   0.01855  -0.00129  -0.00348
 107        3PX        -0.00336   0.00041   0.00997  -0.00125  -0.00168
 108        3PY         0.00155  -0.00075   0.00137  -0.00031  -0.00009
 109        3PZ        -0.00000   0.00000   0.00000   0.00000   0.00000
 110        4S         -0.05074   0.03430  -0.63760  -0.12919   0.03511
 111        4PX        -0.00984   0.00688  -0.10239  -0.02141   0.00320
 112        4PY         0.00424  -0.00253   0.06646   0.01183  -0.00583
 113        4PZ        -0.00000   0.00000  -0.00001   0.00001  -0.00000
 114        5XX        -0.01246   0.00002  -0.00180  -0.00014  -0.00017
 115        5YY        -0.01219   0.00007  -0.00139  -0.00004  -0.00006
 116        5ZZ        -0.01217  -0.00002   0.00024   0.00011   0.00008
 117        5XY         0.00013  -0.00006   0.00277   0.00016   0.00021
 118        5XZ        -0.00000   0.00000  -0.00000  -0.00000  -0.00000
 119        5YZ        -0.00000  -0.00000   0.00000   0.00000   0.00000
 120 8   H  1S          0.00001   0.00001  -0.00251  -0.00009  -0.00004
 121        2S          0.00307   0.00024  -0.00088   0.00060   0.00071
 122        3PX         0.00007  -0.00003   0.00020   0.00004   0.00002
 123        3PY         0.00006   0.00002   0.00004  -0.00002  -0.00002
 124        3PZ        -0.00000   0.00000  -0.00000  -0.00000  -0.00000
 125 9   H  1S          0.00005  -0.00000  -0.00302  -0.00004  -0.00020
 126        2S          0.00300  -0.00001   0.00036  -0.00185  -0.00016
 127        3PX         0.00004   0.00002  -0.00039  -0.00003  -0.00002
 128        3PY        -0.00006   0.00002  -0.00001   0.00001   0.00001
 129        3PZ        -0.00007  -0.00001  -0.00020  -0.00005  -0.00004
 130 10  H  1S          0.00005  -0.00000  -0.00302  -0.00004  -0.00020
 131        2S          0.00300  -0.00001   0.00036  -0.00185  -0.00016
 132        3PX         0.00004   0.00002  -0.00039  -0.00003  -0.00002
 133        3PY        -0.00006   0.00002  -0.00001   0.00001   0.00001
 134        3PZ         0.00007   0.00001   0.00020   0.00005   0.00004
 135 11  N  1S         -0.00002   0.00001   0.01038  -0.01168  -0.06230
 136        2S         -0.00011  -0.00005  -0.01900   0.02432   0.12563
 137        2PX         0.00002   0.00003   0.00752   0.00956   0.01316
 138        2PY        -0.00001   0.00006   0.00048   0.00549   0.03758
 139        2PZ         0.00000  -0.00000  -0.00000  -0.00000   0.00001
 140        3S          0.00130   0.00099  -0.03358   0.01980   0.10976
 141        3PX        -0.00096  -0.00162   0.00913  -0.02216  -0.02311
 142        3PY         0.00026  -0.00093  -0.00920  -0.00009   0.02054
 143        3PZ         0.00000   0.00000  -0.00000   0.00000   0.00001
 144        4S          0.00113   0.00447   0.05409   0.00806  -0.06526
 145        4PX        -0.00022  -0.00705  -0.02470  -0.03407  -0.05930
 146        4PY        -0.00088   0.00151  -0.01755  -0.01814  -0.01290
 147        4PZ         0.00000  -0.00000   0.00000   0.00001   0.00001
 148        5XX         0.00002   0.00012  -0.00146   0.00141   0.00146
 149        5YY        -0.00005   0.00005   0.00072   0.00034   0.00471
 150        5ZZ        -0.00005  -0.00002   0.00127  -0.00043  -0.00534
 151        5XY        -0.00001   0.00002  -0.00050   0.00042   0.00404
 152        5XZ        -0.00000  -0.00000  -0.00000  -0.00000   0.00000
 153        5YZ         0.00000  -0.00000  -0.00000   0.00000   0.00000
 154 12  H  1S          0.00001  -0.00015  -0.00519   0.00802   0.02627
 155        2S          0.00020   0.00050  -0.00915   0.00409   0.01180
 156        3PX         0.00001   0.00003   0.00049   0.00061  -0.00086
 157        3PY         0.00002   0.00001  -0.00074   0.00109   0.00342
 158        3PZ         0.00000  -0.00000  -0.00000   0.00000   0.00000
 159 13  C  1S         -0.00001  -0.00001   0.00465  -0.03017  -0.12600
 160        2S         -0.00003  -0.00010  -0.00976   0.05505   0.23619
 161        2PX         0.00002  -0.00007   0.00207   0.01633  -0.05964
 162        2PY         0.00000  -0.00006  -0.00011   0.00707   0.13515
 163        2PZ         0.00000  -0.00000  -0.00000  -0.00000   0.00006
 164        3S          0.00006   0.00156   0.01017   0.02663   0.08440
 165        3PX        -0.00009   0.00025  -0.00959   0.00611   0.02647
 166        3PY        -0.00022  -0.00104   0.00275  -0.02632  -0.08856
 167        3PZ        -0.00000  -0.00000   0.00000  -0.00001  -0.00004
 168        4S         -0.00197   0.02736   0.20094   0.02519   0.11606
 169        4PX        -0.00318   0.01430  -0.02588   0.13100  -0.02588
 170        4PY         0.00046  -0.00556  -0.03175  -0.00510  -0.00582
 171        4PZ        -0.00000  -0.00000  -0.00001  -0.00002  -0.00000
 172        5XX        -0.00002  -0.00002   0.00006   0.00448  -0.01435
 173        5YY        -0.00000  -0.00004  -0.00021   0.00253   0.01731
 174        5ZZ        -0.00002  -0.00003   0.00047  -0.00458  -0.02004
 175        5XY         0.00000   0.00001   0.00002  -0.00293  -0.00495
 176        5XZ         0.00000  -0.00000   0.00000  -0.00000  -0.00000
 177        5YZ        -0.00000   0.00000  -0.00000   0.00000   0.00002
 178 14  O  1S         -0.00000  -0.00002   0.00361  -0.02361  -0.17820
 179        2S         -0.00001  -0.00009  -0.00735   0.05045   0.37840
 180        2PX        -0.00001  -0.00001  -0.00038   0.00767   0.02497
 181        2PY         0.00000   0.00002   0.00343  -0.02105  -0.14506
 182        2PZ        -0.00000   0.00000   0.00000  -0.00001  -0.00006
 183        3S          0.00010   0.00062  -0.01069   0.05207   0.40878
 184        3PX         0.00005   0.00013   0.00111   0.00314   0.00812
 185        3PY        -0.00004  -0.00020   0.00303  -0.00970  -0.06565
 186        3PZ         0.00000  -0.00000   0.00000  -0.00000  -0.00003
 187        4S          0.00007  -0.00030  -0.00767   0.03086  -0.00564
 188        4PX         0.00003  -0.00016  -0.00411   0.00604  -0.00020
 189        4PY        -0.00020   0.00069   0.00573  -0.01074  -0.00811
 190        4PZ        -0.00000   0.00000  -0.00000  -0.00000  -0.00000
 191        5XX        -0.00000  -0.00006   0.00034  -0.00021  -0.01013
 192        5YY         0.00000  -0.00002  -0.00039   0.00101   0.00781
 193        5ZZ        -0.00001  -0.00005   0.00019  -0.00058  -0.00737
 194        5XY        -0.00000  -0.00001  -0.00004  -0.00117  -0.00348
 195        5XZ         0.00000  -0.00000   0.00000  -0.00000  -0.00000
 196        5YZ        -0.00000   0.00000  -0.00000   0.00000   0.00001
 197 15  C  1S         -0.00001   0.00000   0.00578  -0.11729   0.00131
 198        2S         -0.00004   0.00003  -0.01098   0.21972  -0.00163
 199        2PX         0.00001   0.00004  -0.00334   0.08892  -0.05120
 200        2PY         0.00000  -0.00001   0.00051  -0.00525  -0.00551
 201        2PZ        -0.00000   0.00000   0.00000  -0.00002   0.00001
 202        3S          0.00017  -0.00111  -0.00100   0.04598  -0.02599
 203        3PX        -0.00016  -0.00010   0.00053  -0.02547   0.02675
 204        3PY        -0.00012   0.00006   0.00451  -0.00091   0.04254
 205        3PZ         0.00000  -0.00000   0.00000   0.00001   0.00001
 206        4S          0.00540  -0.02983  -0.04664  -0.11079  -0.03117
 207        4PX        -0.00111   0.00570   0.01241   0.00204   0.01379
 208        4PY         0.00045  -0.00281  -0.00473  -0.02547  -0.00581
 209        4PZ         0.00000  -0.00000  -0.00001  -0.00001  -0.00000
 210        5XX        -0.00001  -0.00002  -0.00003  -0.00286   0.00371
 211        5YY        -0.00001  -0.00003  -0.00070   0.01085  -0.00003
 212        5ZZ        -0.00002   0.00001   0.00099  -0.01977   0.00098
 213        5XY        -0.00001  -0.00001  -0.00028   0.00913  -0.00815
 214        5XZ        -0.00000   0.00000   0.00000  -0.00000  -0.00000
 215        5YZ         0.00000  -0.00000  -0.00000   0.00001   0.00000
 216 16  O  1S         -0.00000   0.00000   0.00472  -0.09664   0.00122
 217        2S         -0.00001   0.00002  -0.01057   0.20881  -0.00457
 218        2PX         0.00000   0.00001   0.00072  -0.01009  -0.00689
 219        2PY        -0.00000   0.00000  -0.00444   0.08989  -0.00366
 220        2PZ        -0.00000  -0.00000  -0.00000   0.00003   0.00000
 221        3S          0.00003  -0.00004  -0.00701   0.19124   0.01663
 222        3PX         0.00003  -0.00005  -0.00005  -0.00026  -0.00738
 223        3PY        -0.00002   0.00012  -0.00019   0.03449   0.00392
 224        3PZ         0.00000   0.00000   0.00000   0.00001   0.00000
 225        4S         -0.00034   0.00209   0.00484  -0.01308   0.03791
 226        4PX         0.00008  -0.00050  -0.00278   0.00491  -0.01222
 227        4PY        -0.00002   0.00049   0.00023   0.00169   0.01026
 228        4PZ        -0.00000   0.00000  -0.00000  -0.00000   0.00001
 229        5XX        -0.00001   0.00001   0.00012  -0.00469   0.00014
 230        5YY        -0.00001   0.00004  -0.00037   0.00811  -0.00189
 231        5ZZ        -0.00001   0.00000  -0.00004  -0.00299   0.00014
 232        5XY         0.00000  -0.00000   0.00001  -0.00067  -0.00146
 233        5XZ         0.00000   0.00000  -0.00000   0.00000  -0.00000
 234        5YZ        -0.00000   0.00000  -0.00000   0.00000  -0.00000
 235 17  O  1S         -0.00000  -0.00002   0.00732  -0.16545   0.04504
 236        2S         -0.00001  -0.00009  -0.01558   0.36087  -0.09613
 237        2PX         0.00000   0.00001   0.00084  -0.01315  -0.01110
 238        2PY         0.00000  -0.00000   0.00476  -0.10657   0.02672
 239        2PZ        -0.00000   0.00000   0.00000  -0.00003   0.00001
 240        3S          0.00005   0.00055  -0.01824   0.35879  -0.12079
 241        3PX        -0.00005  -0.00014   0.00047  -0.01765   0.00337
 242        3PY        -0.00005  -0.00010   0.00234  -0.05399   0.01831
 243        3PZ        -0.00000  -0.00000   0.00000  -0.00001   0.00000
 244        4S         -0.00002   0.00045   0.00154  -0.01548  -0.01226
 245        4PX        -0.00015   0.00075  -0.00183   0.03444  -0.00374
 246        4PY         0.00011  -0.00034   0.00335  -0.00764   0.00919
 247        4PZ         0.00000   0.00000   0.00000  -0.00001   0.00000
 248        5XX        -0.00000  -0.00004   0.00004   0.00086   0.00203
 249        5YY         0.00000  -0.00004  -0.00011   0.00613  -0.00003
 250        5ZZ        -0.00000  -0.00007   0.00042  -0.00728   0.00262
 251        5XY         0.00001   0.00001  -0.00028   0.00711  -0.00109
 252        5XZ        -0.00000   0.00000  -0.00000   0.00000  -0.00000
 253        5YZ         0.00000  -0.00000  -0.00000   0.00000  -0.00000
 254 18  H  1S         -0.00001   0.00003  -0.00433   0.10121  -0.03290
 255        2S          0.00013  -0.00047   0.00300  -0.01783   0.00500
 256        3PX        -0.00000   0.00001   0.00060  -0.01625   0.00496
 257        3PY         0.00000   0.00000  -0.00019   0.00482  -0.00186
 258        3PZ        -0.00000   0.00000  -0.00000   0.00000  -0.00000
                          16        17        18        19        20
                           O         O         O         O         O
     Eigenvalues --    -1.09152  -1.00196  -0.89068  -0.83910  -0.75341
   1 1   C  1S          0.00055   0.01467  -0.06187  -0.12675   0.00773
   2        2S         -0.00091  -0.02657   0.12293   0.24553  -0.01325
   3        2PX        -0.00000   0.01385  -0.06229   0.04925  -0.15468
   4        2PY         0.00091   0.02824  -0.07458   0.06358   0.00002
   5        2PZ        -0.00000  -0.00001   0.00003  -0.00001  -0.00000
   6        3S         -0.00343  -0.00640   0.06976   0.19273  -0.02633
   7        3PX        -0.00137  -0.01459  -0.00992   0.01328  -0.03066
   8        3PY        -0.00511  -0.00114   0.03108   0.00462   0.00517
   9        3PZ         0.00001   0.00000  -0.00001  -0.00000  -0.00001
  10        4S         -0.20276   0.06426  -0.04063   0.22721  -0.00198
  11        4PX        -0.09118  -0.08549  -0.17454  -0.26005   0.00354
  12        4PY        -0.00187   0.04218  -0.02658   0.11503  -0.03375
  13        4PZ         0.00003  -0.00002   0.00000  -0.00004   0.00000
  14        5XX         0.00011   0.00337  -0.00798   0.01169  -0.00232
  15        5YY         0.00003  -0.00449   0.01052  -0.00992   0.00284
  16        5ZZ         0.00009   0.00241  -0.00753  -0.01259   0.00080
  17        5XY        -0.00006  -0.00006   0.00283  -0.00047  -0.00230
  18        5XZ        -0.00000   0.00000  -0.00000   0.00000  -0.00000
  19        5YZ         0.00000   0.00000  -0.00001  -0.00000  -0.00000
  20 2   O  1S          0.00137   0.03951  -0.07612   0.05868  -0.01482
  21        2S         -0.00287  -0.08852   0.17387  -0.13652   0.03551
  22        2PX        -0.00028   0.00975  -0.11562  -0.06321  -0.05014
  23        2PY        -0.00059  -0.02367   0.11408   0.12420  -0.01386
  24        2PZ         0.00000   0.00001  -0.00005  -0.00005   0.00000
  25        3S         -0.00476  -0.10008   0.22007  -0.17206   0.04486
  26        3PX         0.00030   0.00375  -0.05077  -0.03159  -0.02677
  27        3PY        -0.00144  -0.01565   0.05630   0.05807  -0.00944
  28        3PZ         0.00000   0.00001  -0.00003  -0.00002   0.00000
  29        4S         -0.00526   0.04097  -0.00045   0.12762  -0.01761
  30        4PX        -0.00326   0.01030   0.03409   0.05853   0.00454
  31        4PY         0.00242  -0.00202  -0.00625  -0.05312   0.00542
  32        4PZ        -0.00001   0.00000   0.00000   0.00002   0.00000
  33        5XX         0.00016   0.00340  -0.01800  -0.00793  -0.00165
  34        5YY        -0.00010  -0.00222   0.01134   0.01089  -0.00010
  35        5ZZ         0.00010   0.00132   0.00035   0.00000   0.00158
  36        5XY         0.00005   0.00063  -0.00216   0.00884  -0.00747
  37        5XZ        -0.00000  -0.00000   0.00000  -0.00000   0.00000
  38        5YZ        -0.00000   0.00000  -0.00001  -0.00000   0.00000
  39 3   C  1S         -0.00301  -0.09501   0.09571  -0.06503  -0.00936
  40        2S          0.00342   0.17992  -0.18671   0.12362   0.02409
  41        2PX         0.00416   0.08259   0.11746  -0.04824   0.12871
  42        2PY        -0.00149  -0.03406   0.10097   0.08184  -0.09518
  43        2PZ        -0.00000   0.00000  -0.00004  -0.00004   0.00003
  44        3S          0.02483   0.06186  -0.10838   0.11688  -0.02479
  45        3PX         0.01135  -0.04620  -0.01241  -0.02093   0.03077
  46        3PY         0.00451   0.02285  -0.04065   0.00736  -0.00960
  47        3PZ        -0.00000  -0.00001   0.00001  -0.00000   0.00000
  48        4S          0.20470   0.40875  -0.17405   0.64544  -0.13582
  49        4PX        -0.01370  -0.04349   0.12476  -0.19052   0.10840
  50        4PY         0.05525   0.09602  -0.02502   0.10211  -0.04126
  51        4PZ        -0.00003  -0.00001   0.00001  -0.00006   0.00002
  52        5XX         0.00086   0.01034   0.00602   0.00056   0.00209
  53        5YY        -0.00054  -0.00527  -0.00697   0.00092  -0.00336
  54        5ZZ        -0.00073  -0.01316   0.01106  -0.00704  -0.00223
  55        5XY        -0.00026  -0.00194  -0.00887  -0.00964   0.00151
  56        5XZ        -0.00000  -0.00000   0.00000   0.00000  -0.00000
  57        5YZ        -0.00000  -0.00000   0.00001  -0.00000   0.00000
  58 4   C  1S         -0.00007  -0.01758   0.02392  -0.13141   0.08074
  59        2S          0.00011   0.03089  -0.04293   0.24489  -0.15520
  60        2PX         0.00042   0.02111  -0.03193  -0.05481   0.02444
[...]
    12. BD (   1) C   7 - H   9          1.97512    -0.53318  239(v),238(v),48(v),240(g)
    13. BD (   1) C   7 - H  10          1.97509    -0.53317  239(v),238(v),48(v),240(g)
    14. BD (   1) N  11 - H  12          1.97886    -0.70479  252(v),242(v),75(v),164(v)
                                                    73(v),245(g),243(v),166(v)
                                                    254(v)
    15. BD (   1) N  11 - C  13          1.98645    -0.88160  73(v),243(v),245(g),257(v)
                                                    191(v),252(g),250(g),74(v)
    16. BD (   1) C  13 - O  14          1.99460    -1.12516  250(v),163(g),251(g),255(v)
    17. BD (   2) C  13 - O  14          1.98055    -0.42379  256(v),146(v),253(g)
    18. BD (   1) C  13 - C  15          1.97111    -0.70978  245(v),258(v),205(v),177(v)
                                                    147(v),145(v),219(v),179(v)
                                                    252(g)
    19. BD (   1) C  15 - O  16          1.99708    -1.14759  191(g),252(v)
    20. BD (   2) C  15 - O  16          1.98601    -0.44662  253(v),220(v),256(g)
    21. BD (   1) C  15 - O  17          1.99552    -1.01964  251(v),163(v)
    22. BD (   1) O  17 - H  18          1.98486    -0.80553  254(v),192(v),191(v),195(v)
                                                    255(v)
    23. CR (   1) C   1                  1.99909   -10.21119  88(v),238(g),120(v),246(v)
                                                    237(g)
    24. CR (   1) O   2                  1.99972   -19.12385  45(v),105(v)
    25. CR (   1) C   3                  1.99922   -10.21350  87(v),106(v),251(v),246(v)
                                                    250(v),242(g)
    26. CR (   1) C   4                  1.99885   -10.12154  46(v),240(v),245(v),74(v)
                                                    238(g),73(v),101(v),45(v)
    27. CR (   1) N   6                  1.99935   -14.29555  73(v),241(g),237(v),242(v)
                                                    245(v)
    28. CR (   1) C   7                  1.99941   -10.14678  238(v),51(v),46(v)
    29. CR (   1) N  11                  1.99932   -14.30841  74(v),164(v),163(v),252(v)
                                                    75(v),242(v),167(v)
    30. CR (   1) C  13                  1.99932   -10.28447  245(v),196(v),255(v),250(v)
    31. CR (   1) O  14                  1.99980   -18.97890  163(v),251(v)
    32. CR (   1) C  15                  1.99945   -10.32287  252(v),164(v),258(v)
    33. CR (   1) O  16                  1.99979   -19.00132  191(v),257(v)
    34. CR (   1) O  17                  1.99977   -19.11947  191(v),192(v),194(v),255(v)
    35. LP (   1) O   2                  1.97607    -0.65075  45(v),238(v),243(v),105(v)
    36. LP (   2) O   2                  1.71756    -0.36574  239(v),244(v),47(v),107(v)
                                                    52(v)
    37. LP (   1) N   6                  1.95301    -0.47571  242(v),73(v),237(v),59(v)
                                                    245(v),250(r)
    38. LP (   1) N  11                  1.64854    -0.30897  253(v),244(v),165(v),76(v)
                                                    160(v),176(v),171(v)
    39. LP (   1) O  14                  1.98019    -0.74774  163(v),251(v),254(v)
    40. LP (   2) O  14                  1.85321    -0.29830  251(v),254(v),166(v),164(v)
                                                    246(r)
    41. LP (   1) O  16                  1.97817    -0.77536  191(v),254(v),257(v),194(v)
                                                    250(r),192(v),198(v)
    42. LP (   2) O  16                  1.84908    -0.32754  257(v),254(v),192(v),250(r)
                                                    194(v),202(v)
    43. LP (   1) O  17                  1.97274    -0.66895  255(v),191(v),194(v),254(v)
                                                    235(v)
    44. LP (   2) O  17                  1.79686    -0.38932  256(v),193(v),234(v),199(v)
    45. RY*(   1) C   1                  0.00750     0.84652   
    46. RY*(   2) C   1                  0.00441     1.11090   
    47. RY*(   3) C   1                  0.00238     1.71866   
    48. RY*(   4) C   1                  0.00166     1.08819   
    49. RY*(   5) C   1                  0.00121     1.74045   
    50. RY*(   6) C   1                  0.00051     1.65652   
    51. RY*(   7) C   1                  0.00032     1.89044   
    52. RY*(   8) C   1                  0.00027     1.55539   
    53. RY*(   9) C   1                  0.00012     0.88585   
    54. RY*(  10) C   1                  0.00008     2.43916   
    55. RY*(  11) C   1                  0.00006     1.17156   
    56. RY*(  12) C   1                  0.00001     1.38075   
    57. RY*(  13) C   1                  0.00001     2.32044   
    58. RY*(  14) C   1                  0.00000     0.37673   
    59. RY*(   1) O   2                  0.00495     0.79973   
    60. RY*(   2) O   2                  0.00189     0.66593   
    61. RY*(   3) O   2                  0.00143     0.58122   
    62. RY*(   4) O   2                  0.00093     1.89686   
    63. RY*(   5) O   2                  0.00080     1.29447   
    64. RY*(   6) O   2                  0.00027     1.44593   
    65. RY*(   7) O   2                  0.00015     1.18897   
    66. RY*(   8) O   2                  0.00008     1.95293   
    67. RY*(   9) O   2                  0.00004     0.92792   
    68. RY*(  10) O   2                  0.00002     2.30795   
    69. RY*(  11) O   2                  0.00001     3.81442   
    70. RY*(  12) O   2                  0.00000     1.86898   
    71. RY*(  13) O   2                  0.00001     1.67747   
    72. RY*(  14) O   2                  0.00001     2.49678   
    73. RY*(   1) C   3                  0.01185     0.88386   
    74. RY*(   2) C   3                  0.00370     1.01854   
    75. RY*(   3) C   3                  0.00231     1.42618   
    76. RY*(   4) C   3                  0.00227     1.63206   
    77. RY*(   5) C   3                  0.00128     1.81517   
    78. RY*(   6) C   3                  0.00061     0.92027   
    79. RY*(   7) C   3                  0.00030     2.27323   
    80. RY*(   8) C   3                  0.00020     0.64643   
    81. RY*(   9) C   3                  0.00014     2.74620   
    82. RY*(  10) C   3                  0.00010     1.08455   
    83. RY*(  11) C   3                  0.00007     1.87605   
    84. RY*(  12) C   3                  0.00002     1.48589   
    85. RY*(  13) C   3                  0.00003     0.26317   
    86. RY*(  14) C   3                  0.00002     2.37459   
    87. RY*(   1) C   4                  0.00320     0.98005   
    88. RY*(   2) C   4                  0.00257     0.76659   
    89. RY*(   3) C   4                  0.00077     0.39611   
    90. RY*(   4) C   4                  0.00056     0.59300   
    91. RY*(   5) C   4                  0.00025     0.94302   
    92. RY*(   6) C   4                  0.00023     1.81548   
    93. RY*(   7) C   4                  0.00015     1.22379   
    94. RY*(   8) C   4                  0.00010     0.76086   
    95. RY*(   9) C   4                  0.00004     0.64586   
    96. RY*(  10) C   4                  0.00002     1.92096   
    97. RY*(  11) C   4                  0.00002     1.99388   
    98. RY*(  12) C   4                  0.00002     2.40755   
    99. RY*(  13) C   4                  0.00001     4.07291   
   100. RY*(  14) C   4                  0.00001     1.79084   
   101. RY*(   1) H   5                  0.00114     0.56735   
   102. RY*(   2) H   5                  0.00015     2.19402   
   103. RY*(   3) H   5                  0.00010     2.53986   
   104. RY*(   4) H   5                  0.00001     3.07120   
   105. RY*(   1) N   6                  0.00331     0.91130   
   106. RY*(   2) N   6                  0.00165     0.99279   
   107. RY*(   3) N   6                  0.00141     0.82372   
   108. RY*(   4) N   6                  0.00074     1.53348   
   109. RY*(   5) N   6                  0.00063     1.31695   
   110. RY*(   6) N   6                  0.00037     1.10627   
   111. RY*(   7) N   6                  0.00015     1.57726   
   112. RY*(   8) N   6                  0.00006     0.96317   
   113. RY*(   9) N   6                  0.00004     1.03011   
   114. RY*(  10) N   6                  0.00002     0.94820   
   115. RY*(  11) N   6                  0.00002     1.72274   
   116. RY*(  12) N   6                  0.00002     2.03771   
   117. RY*(  13) N   6                  0.00001     3.94655   
   118. RY*(  14) N   6                  0.00000     1.42198   
   119. RY*(   1) C   7                  0.00283     0.66272   
   120. RY*(   2) C   7                  0.00073     0.65213   
   121. RY*(   3) C   7                  0.00049     1.32602   
   122. RY*(   4) C   7                  0.00016     0.64385   
   123. RY*(   5) C   7                  0.00014     0.33879   
   124. RY*(   6) C   7                  0.00010     1.30042   
   125. RY*(   7) C   7                  0.00004     1.03642   
   126. RY*(   8) C   7                  0.00001     0.51180   
   127. RY*(   9) C   7                  0.00000     4.11838   
   128. RY*(  10) C   7                  0.00001     1.64407   
   129. RY*(  11) C   7                  0.00001     1.15407   
   130. RY*(  12) C   7                  0.00001     2.07035   
   131. RY*(  13) C   7                  0.00000     1.88781   
   132. RY*(  14) C   7                  0.00000     2.19713   
   133. RY*(   1) H   8                  0.00032     0.65847   
   134. RY*(   2) H   8                  0.00010     2.25180   
   135. RY*(   3) H   8                  0.00010     2.26492   
   136. RY*(   4) H   8                  0.00001     3.01501   
   137. RY*(   1) H   9                  0.00087     0.64957   
   138. RY*(   2) H   9                  0.00010     2.28963   
   139. RY*(   3) H   9                  0.00011     2.27251   
   140. RY*(   4) H   9                  0.00001     3.01329   
   141. RY*(   1) H  10                  0.00087     0.64962   
   142. RY*(   2) H  10                  0.00010     2.28936   
   143. RY*(   3) H  10                  0.00011     2.27269   
   144. RY*(   4) H  10                  0.00001     3.01329   
   145. RY*(   1) N  11                  0.00334     1.36277   
   146. RY*(   2) N  11                  0.00295     0.60728   
   147. RY*(   3) N  11                  0.00194     1.18649   
   148. RY*(   4) N  11                  0.00095     1.51883   
   149. RY*(   5) N  11                  0.00043     1.75290   
   150. RY*(   6) N  11                  0.00021     1.54260   
   151. RY*(   7) N  11                  0.00016     0.77947   
   152. RY*(   8) N  11                  0.00015     1.58069   
   153. RY*(   9) N  11                  0.00010     1.36856   
   154. RY*(  10) N  11                  0.00006     1.40314   
   155. RY*(  11) N  11                  0.00005     2.03260   
   156. RY*(  12) N  11                  0.00002     1.81409   
   157. RY*(  13) N  11                  0.00001     3.96789   
   158. RY*(  14) N  11                  0.00001     2.18801   
   159. RY*(   1) H  12                  0.00275     0.66499   
   160. RY*(   2) H  12                  0.00032     2.22433   
   161. RY*(   3) H  12                  0.00014     2.65679   
   162. RY*(   4) H  12                  0.00003     3.04078   
   163. RY*(   1) C  13                  0.01681     0.84071   
   164. RY*(   2) C  13                  0.00659     1.30754   
   165. RY*(   3) C  13                  0.00330     2.12757   
   166. RY*(   4) C  13                  0.00287     2.05117   
   167. RY*(   5) C  13                  0.00127     1.48132   
   168. RY*(   6) C  13                  0.00054     0.85250   
   169. RY*(   7) C  13                  0.00040     0.80405   
   170. RY*(   8) C  13                  0.00028     3.00721   
   171. RY*(   9) C  13                  0.00018     1.68503   
   172. RY*(  10) C  13                  0.00016     1.45468   
   173. RY*(  11) C  13                  0.00008     1.17405   
   174. RY*(  12) C  13                  0.00004     1.26173   
   175. RY*(  13) C  13                  0.00003     2.16881   
   176. RY*(  14) C  13                  0.00002     0.21395   
   177. RY*(   1) O  14                  0.00341     1.14925   
   178. RY*(   2) O  14                  0.00151     0.58800   
   179. RY*(   3) O  14                  0.00123     1.04921   
   180. RY*(   4) O  14                  0.00018     1.05190   
   181. RY*(   5) O  14                  0.00010     1.58281   
   182. RY*(   6) O  14                  0.00009     1.03218   
   183. RY*(   7) O  14                  0.00007     2.31364   
   184. RY*(   8) O  14                  0.00006     2.22726   
   185. RY*(   9) O  14                  0.00003     0.91362   
   186. RY*(  10) O  14                  0.00002     2.43022   
   187. RY*(  11) O  14                  0.00002     1.68445   
   188. RY*(  12) O  14                  0.00002     1.90791   
   189. RY*(  13) O  14                  0.00000     1.86233   
   190. RY*(  14) O  14                  0.00001     1.92905   
   191. RY*(   1) C  15                  0.02018     0.78411   
   192. RY*(   2) C  15                  0.00734     1.49766   
   193. RY*(   3) C  15                  0.00377     2.05886   
   194. RY*(   4) C  15                  0.00305     1.74475   
   195. RY*(   5) C  15                  0.00135     1.81995   
   196. RY*(   6) C  15                  0.00087     1.16609   
   197. RY*(   7) C  15                  0.00038     1.86026   
   198. RY*(   8) C  15                  0.00028     2.92931   
   199. RY*(   9) C  15                  0.00026     0.52111   
   200. RY*(  10) C  15                  0.00014     1.02869   
   201. RY*(  11) C  15                  0.00006     0.76772   
   202. RY*(  12) C  15                  0.00001     0.76453   
   203. RY*(  13) C  15                  0.00002     0.34192   
   204. RY*(  14) C  15                  0.00001     2.31258   
   205. RY*(   1) O  16                  0.00377     0.97827   
   206. RY*(   2) O  16                  0.00076     0.62866   
   207. RY*(   3) O  16                  0.00057     1.70031   
   208. RY*(   4) O  16                  0.00024     1.34410   
   209. RY*(   5) O  16                  0.00022     0.90337   
   210. RY*(   6) O  16                  0.00013     1.58926   
   211. RY*(   7) O  16                  0.00007     1.40484   
   212. RY*(   8) O  16                  0.00004     1.30398   
   213. RY*(   9) O  16                  0.00005     1.69618   
   214. RY*(  10) O  16                  0.00003     1.70439   
   215. RY*(  11) O  16                  0.00001     2.30719   
   216. RY*(  12) O  16                  0.00000     1.82183   
   217. RY*(  13) O  16                  0.00001     1.93473   
   218. RY*(  14) O  16                  0.00001     1.83415   
   219. RY*(   1) O  17                  0.00237     0.78188   
   220. RY*(   2) O  17                  0.00144     0.55786   
   221. RY*(   3) O  17                  0.00059     1.68157   
   222. RY*(   4) O  17                  0.00026     1.09527   
   223. RY*(   5) O  17                  0.00018     0.99449   
   224. RY*(   6) O  17                  0.00007     1.13802   
   225. RY*(   7) O  17                  0.00006     1.03027   
   226. RY*(   8) O  17                  0.00005     1.70842   
   227. RY*(   9) O  17                  0.00000     3.66978   
   228. RY*(  10) O  17                  0.00001     2.12905   
   229. RY*(  11) O  17                  0.00001     1.71496   
   230. RY*(  12) O  17                  0.00001     1.88585   
   231. RY*(  13) O  17                  0.00001     2.17702   
   232. RY*(  14) O  17                  0.00001     2.23895   
   233. RY*(   1) H  18                  0.00398     0.66392   
   234. RY*(   2) H  18                  0.00069     2.22257   
   235. RY*(   3) H  18                  0.00048     2.44982   
   236. RY*(   4) H  18                  0.00001     2.95276   
   237. BD*(   1) C   1 - O   2          0.04213     0.35836   
   238. BD*(   1) C   1 - C   4          0.02337     0.59374   
   239. BD*(   2) C   1 - C   4          0.26044     0.01664  244(v),89(g),249(v),248(v)
                                                    52(g),95(g)
   240. BD*(   1) C   1 - C   7          0.01747     0.42774   
   241. BD*(   1) O   2 - N   6          0.01988     0.24047   
   242. BD*(   1) C   3 - C   4          0.02802     0.50331   
   243. BD*(   1) C   3 - N   6          0.01603     0.51903   
   244. BD*(   2) C   3 - N   6          0.38020    -0.01124  239(v),253(r),82(g),108(g)
                                                    146(v),89(v),107(g),76(g)
   245. BD*(   1) C   3 - N  11          0.03301     0.42274   
   246. BD*(   1) C   4 - H   5          0.01247     0.43355   
   247. BD*(   1) C   7 - H   8          0.00357     0.39708   
   248. BD*(   1) C   7 - H   9          0.00872     0.39592   
   249. BD*(   1) C   7 - H  10          0.00873     0.39591   
   250. BD*(   1) N  11 - H  12          0.02240     0.38684   
   251. BD*(   1) N  11 - C  13          0.07618     0.43442   
   252. BD*(   1) C  13 - O  14          0.01235     0.57169   
   253. BD*(   2) C  13 - O  14          0.27927    -0.01215  256(v),244(r),178(g),165(g)
                                                    171(g)
   254. BD*(   1) C  13 - C  15          0.12839     0.32639  250(v),245(v),196(g),255(g)
                                                    194(g),258(v),252(g),164(g)
                                                    167(g)
   255. BD*(   1) C  15 - O  16          0.02328     0.55967   
   256. BD*(   2) C  15 - O  16          0.22089    -0.02473  253(v),193(g),203(g),206(g)
                                                    216(g),199(g)
   257. BD*(   1) C  15 - O  17          0.08632     0.34932   
   258. BD*(   1) O  17 - H  18          0.01323     0.40460   
       -------------------------------
              Total Lewis   86.09987  ( 97.8408%)
        Valence non-Lewis    1.71633  (  1.9504%)
        Rydberg non-Lewis    0.18379  (  0.2089%)
       -------------------------------
            Total unit  1   88.00000  (100.0000%)
           Charge unit  1    0.00000
 Unable to Open any file for archive entry.
 1\1\GINC-USER\SP\RM06\6-31+G(d,p)\C6H6N2O4\USER\15-May-2023\0\\# 6-31+
 g(d,p) pop=(full,nbo) m06\\I-M2\\0,1\C,0,2.815018,0.267296,0.000256\O,
 0,2.806257,-1.077298,-0.000325\C,0,0.765383,-0.448753,-0.000152\C,0,1.
 539024,0.740456,0.000351\H,0,1.190082,1.761481,0.000606\N,0,1.502682,-
 1.537905,-0.00057\C,0,4.141179,0.920201,0.00047\H,0,4.025646,2.006539,
 0.002023\H,0,4.718979,0.627462,0.883806\H,0,4.718042,0.629938,-0.88430
 3\N,0,-0.612923,-0.600792,-0.000082\H,0,-0.977647,-1.549964,0.000298\C
 ,0,-1.512436,0.420509,-0.000286\O,0,-1.258921,1.605534,-0.000756\C,0,-
 2.946013,-0.129795,0.000172\O,0,-3.198349,-1.312485,0.00062\O,0,-3.847
 943,0.840781,0.000075\H,0,-4.724697,0.42368,0.00035\\Version=ES64L-G16
 RevC.01\State=1-A\HF=-642.3076391\RMSD=5.598e-09\Dipole=0.0147585,0.58
 09515,0.0008875\Quadrupole=12.8170608,-10.5124347,-2.3046261,5.8504947
 ,0.001289,0.0018395\PG=C01 [X(C6H6N2O4)]\\@
 The archive entry for this job was punched.


 I LOVE THOSE WHO LONG FOR THE IMPOSSIBLE.

                                 -- GOETHE
 Job cpu time:       0 days  0 hours 14 minutes 48.6 seconds.
 Elapsed time:       0 days  0 hours  1 minutes 14.1 seconds.
 File lengths (MBytes):  RWF=     40 Int=      0 D2E=      0 Chk=      5 Scr=      1
 Normal termination of Gaussian 16 at Mon May 15 22:18:01 2023.
