 Entering Gaussian System, Link 0=/home/user/SOFTWARE/gauss/g16/g16
 Input=/home/user/WorkIMPORTANT/Joydeep/I-M new 2/I-M3.gjf
 Output=/home/user/WorkIMPORTANT/Joydeep/I-M new 2/I-M3.log
 Initial command:
 /home/user/SOFTWARE/gauss/g16/l1.exe "/home/user/SOFTWARE/gauss/scratch/Gau-78335.inp" -scrdir="/home/user/SOFTWARE/gauss/scratch/"
 Entering Link 1 = /home/user/SOFTWARE/gauss/g16/l1.exe PID=     78337.
  
 Copyright (c) 1988-2019, Gaussian, Inc.  All Rights Reserved.
  
 This is part of the Gaussian(R) 16 program.  It is based on
 the Gaussian(R) 09 system (copyright 2009, Gaussian, Inc.),
 the Gaussian(R) 03 system (copyright 2003, Gaussian, Inc.),
 the Gaussian(R) 98 system (copyright 1998, Gaussian, Inc.),
 the Gaussian(R) 94 system (copyright 1995, Gaussian, Inc.),
 the Gaussian 92(TM) system (copyright 1992, Gaussian, Inc.),
 the Gaussian 90(TM) system (copyright 1990, Gaussian, Inc.),
 the Gaussian 88(TM) system (copyright 1988, Gaussian, Inc.),
 the Gaussian 86(TM) system (copyright 1986, Carnegie Mellon
 University), and the Gaussian 82(TM) system (copyright 1983,
 Carnegie Mellon University). Gaussian is a federally registered
 trademark of Gaussian, Inc.
  
 This software contains proprietary and confidential information,
 including trade secrets, belonging to Gaussian, Inc.
  
 This software is provided under written license and may be
 used, copied, transmitted, or stored only in accord with that
 written license.
  
 The following legend is applicable only to US Government
 contracts under FAR:
  
                    RESTRICTED RIGHTS LEGEND
  
 Use, reproduction and disclosure by the US Government is
 subject to restrictions as set forth in subparagraphs (a)
 and (c) of the Commercial Computer Software - Restricted
 Rights clause in FAR 52.227-19.
  
 Gaussian, Inc.
 340 Quinnipiac St., Bldg. 40, Wallingford CT 06492
  
  
 ---------------------------------------------------------------
 Warning -- This program may not be used in any manner that
 competes with the business of Gaussian, Inc. or will provide
 assistance to any competitor of Gaussian, Inc.  The licensee
 of this program is prohibited from giving any competitor of
 Gaussian, Inc. access to this program.  By using this program,
 the user acknowledges that Gaussian, Inc. is engaged in the
 business of creating and licensing software in the field of
 computational chemistry and represents and warrants to the
 licensee that it is not a competitor of Gaussian, Inc. and that
 it will not use this program in any manner prohibited above.
 ---------------------------------------------------------------
  

 Cite this work as:
 Gaussian 16, Revision C.01,
 M. J. Frisch, G. W. Trucks, H. B. Schlegel, G. E. Scuseria, 
 M. A. Robb, J. R. Cheeseman, G. Scalmani, V. Barone, 
 G. A. Petersson, H. Nakatsuji, X. Li, M. Caricato, A. V. Marenich, 
 J. Bloino, B. G. Janesko, R. Gomperts, B. Mennucci, H. P. Hratchian, 
 J. V. Ortiz, A. F. Izmaylov, J. L. Sonnenberg, D. Williams-Young, 
 F. Ding, F. Lipparini, F. Egidi, J. Goings, B. Peng, A. Petrone, 
 T. Henderson, D. Ranasinghe, V. G. Zakrzewski, J. Gao, N. Rega, 
 G. Zheng, W. Liang, M. Hada, M. Ehara, K. Toyota, R. Fukuda, 
 J. Hasegawa, M. Ishida, T. Nakajima, Y. Honda, O. Kitao, H. Nakai, 
 T. Vreven, K. Throssell, J. A. Montgomery, Jr., J. E. Peralta, 
 F. Ogliaro, M. J. Bearpark, J. J. Heyd, E. N. Brothers, K. N. Kudin, 
 V. N. Staroverov, T. A. Keith, R. Kobayashi, J. Normand, 
 K. Raghavachari, A. P. Rendell, J. C. Burant, S. S. Iyengar, 
 J. Tomasi, M. Cossi, J. M. Millam, M. Klene, C. Adamo, R. Cammi, 
 J. W. Ochterski, R. L. Martin, K. Morokuma, O. Farkas, 
 J. B. Foresman, and D. J. Fox, Gaussian, Inc., Wallingford CT, 2019.
 
 ******************************************
 Gaussian 16:  ES64L-G16RevC.01  3-Jul-2019
                16-May-2023 
 ******************************************
 %mem=64GB
 %nprocshared=16
 Will use up to   16 processors via shared memory.
 --------------------------
 # opt freq 6-31+g(d,p) m06
 --------------------------
 1/18=20,19=15,26=3,38=1/1,3;
 2/9=110,12=2,17=6,18=5,40=1/2;
 3/5=1,6=6,7=111,11=2,25=1,30=1,71=1,74=-54/1,2,3;
 4//1;
 5/5=2,38=5/2;
 6/7=2,8=2,9=2,10=2,28=1/1;
 7//1,2,3,16;
 1/18=20,19=15,26=3/3(2);
 2/9=110/2;
 99//99;
 2/9=110/2;
 3/5=1,6=6,7=111,11=2,25=1,30=1,71=1,74=-54/1,2,3;
 4/5=5,16=3,69=1/1;
 5/5=2,38=5/2;
 7//1,2,3,16;
 1/18=20,19=15,26=3/3(-5);
 2/9=110/2;
 6/7=2,8=2,9=2,10=2,19=2,28=1/1;
 99/9=1/99;
 ----
 I-M3
 ----
 Symbolic Z-matrix:
 Charge =  0 Multiplicity = 1
 C                    -3.09801  -0.2755   -0.14686 
 C                    -4.44579  -0.59603  -0.09796 
 C                    -5.3742    0.42726   0.07468 
 C                    -4.94476   1.74787   0.19028 
 C                    -3.59025   2.05859   0.15176 
 C                    -2.64274   1.04434  -0.0068 
 H                    -4.75485  -1.63404  -0.19369 
 H                    -5.67349   2.54416   0.31746 
 H                    -3.24944   3.08538   0.24898 
 C                    -1.20823   1.34956  -0.01668 
 C                    -0.25703   0.38307   0.18444 
 S                    -1.88616  -1.53954  -0.46446 
 O                    -1.46278  -1.44817  -1.84885 
 O                    -2.35009  -2.79288   0.1069 
 N                    -0.6161   -0.96912   0.48965 
 C                    -0.72589  -1.27093   1.92793 
 H                     0.2276   -1.00801   2.39609 
 H                    -1.5283   -0.69087   2.40732 
 H                    -0.90901  -2.33838   2.0628 
 O                    -0.91095   2.61952  -0.25469 
 H                     0.07946   2.69914  -0.21389 
 C                     1.16209   0.71321   0.0756 
 O                     1.55313   1.88488  -0.04772 
 N                     2.01507  -0.34907   0.12246 
 H                     1.60057  -1.27712   0.12621 
 C                     3.39782  -0.28399   0.04988 
 N                     4.06289  -1.41808   0.10304 
 C                     5.49005   0.28663  -0.08723 
 C                     4.24961   0.84527  -0.06991 
 C                     6.8542    0.8464   -0.19439 
 H                     7.45606   0.57681   0.68026 
 H                     7.36595   0.4578   -1.08152 
 H                     6.80912   1.93566  -0.26604 
 O                     5.39405  -1.05029   0.0137 
 H                     3.96834   1.88445  -0.13709 
 O                    -6.76944   0.11849   0.12811 
 H                    -7.27958   0.90155  -0.09143 
 

 GradGradGradGradGradGradGradGradGradGradGradGradGradGradGradGradGradGrad
 Berny optimization.
 Initialization pass.
                           ----------------------------
                           !    Initial Parameters    !
                           ! (Angstroms and Degrees)  !
 --------------------------                            --------------------------
 ! Name  Definition              Value          Derivative Info.                !
 --------------------------------------------------------------------------------
 ! R1    R(1,2)                  1.3862         estimate D2E/DX2                !
 ! R2    R(1,6)                  1.4032         estimate D2E/DX2                !
 ! R3    R(1,12)                 1.7797         estimate D2E/DX2                !
 ! R4    R(2,3)                  1.3924         estimate D2E/DX2                !
 ! R5    R(2,7)                  1.0873         estimate D2E/DX2                !
 ! R6    R(3,4)                  1.3935         estimate D2E/DX2                !
 ! R7    R(3,36)                 1.43           estimate D2E/DX2                !
 ! R8    R(4,5)                  1.3902         estimate D2E/DX2                !
 ! R9    R(4,8)                  1.0869         estimate D2E/DX2                !
 ! R10   R(5,6)                  1.397          estimate D2E/DX2                !
 ! R11   R(5,9)                  1.0862         estimate D2E/DX2                !
 ! R12   R(6,10)                 1.4667         estimate D2E/DX2                !
 ! R13   R(10,11)                1.3709         estimate D2E/DX2                !
 ! R14   R(10,20)                1.3258         estimate D2E/DX2                !
 ! R15   R(11,15)                1.432          estimate D2E/DX2                !
 ! R16   R(11,22)                1.4611         estimate D2E/DX2                !
 ! R17   R(12,13)                1.4506         estimate D2E/DX2                !
 ! R18   R(12,14)                1.4535         estimate D2E/DX2                !
 ! R19   R(12,15)                1.6878         estimate D2E/DX2                !
 ! R20   R(15,16)                1.4737         estimate D2E/DX2                !
 ! R21   R(16,17)                1.0943         estimate D2E/DX2                !
 ! R22   R(16,18)                1.1001         estimate D2E/DX2                !
 ! R23   R(16,19)                1.0914         estimate D2E/DX2                !
 ! R24   R(20,21)                0.9944         estimate D2E/DX2                !
 ! R25   R(22,23)                1.2413         estimate D2E/DX2                !
 ! R26   R(22,24)                1.3632         estimate D2E/DX2                !
 ! R27   R(24,25)                1.0164         estimate D2E/DX2                !
 ! R28   R(24,26)                1.3862         estimate D2E/DX2                !
 ! R29   R(26,27)                1.3158         estimate D2E/DX2                !
 ! R30   R(26,29)                1.4195         estimate D2E/DX2                !
 ! R31   R(27,34)                1.3839         estimate D2E/DX2                !
 ! R32   R(28,29)                1.3605         estimate D2E/DX2                !
 ! R33   R(28,30)                1.4784         estimate D2E/DX2                !
 ! R34   R(28,34)                1.3442         estimate D2E/DX2                !
 ! R35   R(29,35)                1.0787         estimate D2E/DX2                !
 ! R36   R(30,31)                1.0954         estimate D2E/DX2                !
 ! R37   R(30,32)                1.0954         estimate D2E/DX2                !
 ! R38   R(30,33)                1.0925         estimate D2E/DX2                !
 ! R39   R(36,37)                0.96           estimate D2E/DX2                !
 ! A1    A(2,1,6)              121.9666         estimate D2E/DX2                !
 ! A2    A(2,1,12)             120.2727         estimate D2E/DX2                !
 ! A3    A(6,1,12)             117.7083         estimate D2E/DX2                !
 ! A4    A(1,2,3)              118.8625         estimate D2E/DX2                !
 ! A5    A(1,2,7)              119.6044         estimate D2E/DX2                !
 ! A6    A(3,2,7)              121.5331         estimate D2E/DX2                !
 ! A7    A(2,3,4)              120.0841         estimate D2E/DX2                !
 ! A8    A(2,3,36)             119.7688         estimate D2E/DX2                !
 ! A9    A(4,3,36)             120.1467         estimate D2E/DX2                !
 ! A10   A(3,4,5)              120.6489         estimate D2E/DX2                !
 ! A11   A(3,4,8)              119.8289         estimate D2E/DX2                !
 ! A12   A(5,4,8)              119.5213         estimate D2E/DX2                !
 ! A13   A(4,5,6)              120.1123         estimate D2E/DX2                !
 ! A14   A(4,5,9)              120.9633         estimate D2E/DX2                !
 ! A15   A(6,5,9)              118.9236         estimate D2E/DX2                !
 ! A16   A(1,6,5)              118.3058         estimate D2E/DX2                !
 ! A17   A(1,6,10)             120.8249         estimate D2E/DX2                !
 ! A18   A(5,6,10)             120.8678         estimate D2E/DX2                !
 ! A19   A(6,10,11)            122.0696         estimate D2E/DX2                !
 ! A20   A(6,10,20)            114.8248         estimate D2E/DX2                !
 ! A21   A(11,10,20)           123.0974         estimate D2E/DX2                !
 ! A22   A(10,11,15)           121.5351         estimate D2E/DX2                !
 ! A23   A(10,11,22)           120.2454         estimate D2E/DX2                !
 ! A24   A(15,11,22)           118.2161         estimate D2E/DX2                !
 ! A25   A(1,12,13)            108.9243         estimate D2E/DX2                !
 ! A26   A(1,12,14)            108.9641         estimate D2E/DX2                !
 ! A27   A(1,12,15)             99.8733         estimate D2E/DX2                !
 ! A28   A(13,12,14)           121.51           estimate D2E/DX2                !
 ! A29   A(13,12,15)           107.3725         estimate D2E/DX2                !
 ! A30   A(14,12,15)           108.0234         estimate D2E/DX2                !
 ! A31   A(11,15,12)           112.7889         estimate D2E/DX2                !
 ! A32   A(11,15,16)           114.8403         estimate D2E/DX2                !
 ! A33   A(12,15,16)           115.2412         estimate D2E/DX2                !
 ! A34   A(15,16,17)           107.6635         estimate D2E/DX2                !
 ! A35   A(15,16,18)           111.8177         estimate D2E/DX2                !
 ! A36   A(15,16,19)           109.4755         estimate D2E/DX2                !
 ! A37   A(17,16,18)           108.8111         estimate D2E/DX2                !
 ! A38   A(17,16,19)           109.1672         estimate D2E/DX2                !
 ! A39   A(18,16,19)           109.8452         estimate D2E/DX2                !
 ! A40   A(10,20,21)           107.0159         estimate D2E/DX2                !
 ! A41   A(11,22,23)           121.7788         estimate D2E/DX2                !
 ! A42   A(11,22,24)           115.4124         estimate D2E/DX2                !
 ! A43   A(23,22,24)           122.8086         estimate D2E/DX2                !
 ! A44   A(22,24,25)           117.1598         estimate D2E/DX2                !
 ! A45   A(22,24,26)           125.8599         estimate D2E/DX2                !
 ! A46   A(25,24,26)           116.7343         estimate D2E/DX2                !
 ! A47   A(24,26,27)           117.4918         estimate D2E/DX2                !
 ! A48   A(24,26,29)           129.8157         estimate D2E/DX2                !
 ! A49   A(27,26,29)           112.6915         estimate D2E/DX2                !
 ! A50   A(26,27,34)           104.7452         estimate D2E/DX2                !
 ! A51   A(29,28,30)           133.3702         estimate D2E/DX2                !
 ! A52   A(29,28,34)           110.0184         estimate D2E/DX2                !
 ! A53   A(30,28,34)           116.6111         estimate D2E/DX2                !
 ! A54   A(26,29,28)           102.7977         estimate D2E/DX2                !
 ! A55   A(26,29,35)           127.9647         estimate D2E/DX2                !
 ! A56   A(28,29,35)           129.2362         estimate D2E/DX2                !
 ! A57   A(28,30,31)           110.8496         estimate D2E/DX2                !
 ! A58   A(28,30,32)           110.8214         estimate D2E/DX2                !
 ! A59   A(28,30,33)           110.1317         estimate D2E/DX2                !
 ! A60   A(31,30,32)           107.6166         estimate D2E/DX2                !
 ! A61   A(31,30,33)           108.687          estimate D2E/DX2                !
 ! A62   A(32,30,33)           108.654          estimate D2E/DX2                !
 ! A63   A(27,34,28)           109.7469         estimate D2E/DX2                !
 ! A64   A(3,36,37)            109.5            estimate D2E/DX2                !
 ! D1    D(6,1,2,3)              1.015          estimate D2E/DX2                !
 ! D2    D(6,1,2,7)           -178.9377         estimate D2E/DX2                !
 ! D3    D(12,1,2,3)          -176.2906         estimate D2E/DX2                !
 ! D4    D(12,1,2,7)             3.7567         estimate D2E/DX2                !
 ! D5    D(2,1,6,5)             -1.6605         estimate D2E/DX2                !
 ! D6    D(2,1,6,10)           177.892          estimate D2E/DX2                !
 ! D7    D(12,1,6,5)           175.7111         estimate D2E/DX2                !
 ! D8    D(12,1,6,10)           -4.7364         estimate D2E/DX2                !
 ! D9    D(2,1,12,13)          101.9038         estimate D2E/DX2                !
 ! D10   D(2,1,12,14)          -32.6866         estimate D2E/DX2                !
 ! D11   D(2,1,12,15)         -145.7587         estimate D2E/DX2                !
 ! D12   D(6,1,12,13)          -75.5143         estimate D2E/DX2                !
 ! D13   D(6,1,12,14)          149.8952         estimate D2E/DX2                !
 ! D14   D(6,1,12,15)           36.8232         estimate D2E/DX2                !
 ! D15   D(1,2,3,4)              0.2316         estimate D2E/DX2                !
 ! D16   D(1,2,3,36)          -179.9893         estimate D2E/DX2                !
 ! D17   D(7,2,3,4)           -179.8167         estimate D2E/DX2                !
 ! D18   D(7,2,3,36)            -0.0375         estimate D2E/DX2                !
 ! D19   D(2,3,4,5)             -0.8005         estimate D2E/DX2                !
 ! D20   D(2,3,4,8)            179.5438         estimate D2E/DX2                !
 ! D21   D(36,3,4,5)           179.4212         estimate D2E/DX2                !
 ! D22   D(36,3,4,8)            -0.2345         estimate D2E/DX2                !
 ! D23   D(2,3,36,37)         -158.1853         estimate D2E/DX2                !
 ! D24   D(4,3,36,37)           21.5937         estimate D2E/DX2                !
 ! D25   D(3,4,5,6)              0.1326         estimate D2E/DX2                !
 ! D26   D(3,4,5,9)           -179.5294         estimate D2E/DX2                !
 ! D27   D(8,4,5,6)            179.7894         estimate D2E/DX2                !
 ! D28   D(8,4,5,9)              0.1273         estimate D2E/DX2                !
 ! D29   D(4,5,6,1)              1.0647         estimate D2E/DX2                !
 ! D30   D(4,5,6,10)          -178.4876         estimate D2E/DX2                !
 ! D31   D(9,5,6,1)           -179.2664         estimate D2E/DX2                !
 ! D32   D(9,5,6,10)             1.1813         estimate D2E/DX2                !
 ! D33   D(1,6,10,11)          -17.1222         estimate D2E/DX2                !
 ! D34   D(1,6,10,20)          161.8661         estimate D2E/DX2                !
 ! D35   D(5,6,10,11)          162.4187         estimate D2E/DX2                !
 ! D36   D(5,6,10,20)          -18.5929         estimate D2E/DX2                !
 ! D37   D(6,10,11,15)          -3.5172         estimate D2E/DX2                !
 ! D38   D(6,10,11,22)         175.7943         estimate D2E/DX2                !
 ! D39   D(20,10,11,15)        177.5787         estimate D2E/DX2                !
 ! D40   D(20,10,11,22)         -3.1097         estimate D2E/DX2                !
 ! D41   D(6,10,20,21)         178.7005         estimate D2E/DX2                !
 ! D42   D(11,10,20,21)         -2.3228         estimate D2E/DX2                !
 ! D43   D(10,11,15,12)         43.5664         estimate D2E/DX2                !
 ! D44   D(10,11,15,16)        -91.1969         estimate D2E/DX2                !
 ! D45   D(22,11,15,12)       -135.7586         estimate D2E/DX2                !
 ! D46   D(22,11,15,16)         89.4781         estimate D2E/DX2                !
 ! D47   D(10,11,22,23)          8.2814         estimate D2E/DX2                !
 ! D48   D(10,11,22,24)       -171.8758         estimate D2E/DX2                !
 ! D49   D(15,11,22,23)       -172.3845         estimate D2E/DX2                !
 ! D50   D(15,11,22,24)          7.4583         estimate D2E/DX2                !
 ! D51   D(1,12,15,11)         -54.431          estimate D2E/DX2                !
 ! D52   D(1,12,15,16)          80.1429         estimate D2E/DX2                !
 ! D53   D(13,12,15,11)         59.1085         estimate D2E/DX2                !
 ! D54   D(13,12,15,16)       -166.3177         estimate D2E/DX2                !
 ! D55   D(14,12,15,11)       -168.2289         estimate D2E/DX2                !
 ! D56   D(14,12,15,16)        -33.655          estimate D2E/DX2                !
 ! D57   D(11,15,16,17)        -56.1504         estimate D2E/DX2                !
 ! D58   D(11,15,16,18)         63.3212         estimate D2E/DX2                !
 ! D59   D(11,15,16,19)       -174.7114         estimate D2E/DX2                !
 ! D60   D(12,15,16,17)        170.2099         estimate D2E/DX2                !
 ! D61   D(12,15,16,18)        -70.3185         estimate D2E/DX2                !
 ! D62   D(12,15,16,19)         51.6489         estimate D2E/DX2                !
 ! D63   D(11,22,24,25)          6.4466         estimate D2E/DX2                !
 ! D64   D(11,22,24,26)       -179.4616         estimate D2E/DX2                !
 ! D65   D(23,22,24,25)       -173.7125         estimate D2E/DX2                !
 ! D66   D(23,22,24,26)          0.3794         estimate D2E/DX2                !
 ! D67   D(22,24,26,27)       -179.5702         estimate D2E/DX2                !
 ! D68   D(22,24,26,29)          0.8082         estimate D2E/DX2                !
 ! D69   D(25,24,26,27)         -5.456          estimate D2E/DX2                !
 ! D70   D(25,24,26,29)        174.9224         estimate D2E/DX2                !
 ! D71   D(24,26,27,34)       -179.8465         estimate D2E/DX2                !
 ! D72   D(29,26,27,34)         -0.1616         estimate D2E/DX2                !
 ! D73   D(24,26,29,28)        179.7735         estimate D2E/DX2                !
 ! D74   D(24,26,29,35)         -0.6311         estimate D2E/DX2                !
 ! D75   D(27,26,29,28)          0.1374         estimate D2E/DX2                !
 ! D76   D(27,26,29,35)        179.7327         estimate D2E/DX2                !
 ! D77   D(26,27,34,28)          0.1241         estimate D2E/DX2                !
 ! D78   D(30,28,29,26)        179.7674         estimate D2E/DX2                !
 ! D79   D(30,28,29,35)          0.1793         estimate D2E/DX2                !
 ! D80   D(34,28,29,26)         -0.0523         estimate D2E/DX2                !
 ! D81   D(34,28,29,35)       -179.6404         estimate D2E/DX2                !
 ! D82   D(29,28,30,31)        120.7582         estimate D2E/DX2                !
 ! D83   D(29,28,30,32)       -119.8147         estimate D2E/DX2                !
 ! D84   D(29,28,30,33)          0.442          estimate D2E/DX2                !
 ! D85   D(34,28,30,31)        -59.4313         estimate D2E/DX2                !
 ! D86   D(34,28,30,32)         59.9959         estimate D2E/DX2                !
 ! D87   D(34,28,30,33)       -179.7475         estimate D2E/DX2                !
 ! D88   D(29,28,34,27)         -0.0417         estimate D2E/DX2                !
 ! D89   D(30,28,34,27)       -179.8951         estimate D2E/DX2                !
 --------------------------------------------------------------------------------
 Trust Radius=3.00D-01 FncErr=1.00D-07 GrdErr=1.00D-06 EigMax=2.50D+02 EigMin=1.00D-04
 Number of steps in this run=    202 maximum allowed number of steps=    222.
 GradGradGradGradGradGradGradGradGradGradGradGradGradGradGradGradGradGrad

                          Input orientation:                          
 ---------------------------------------------------------------------
 Center     Atomic      Atomic             Coordinates (Angstroms)
 Number     Number       Type             X           Y           Z
 ---------------------------------------------------------------------
      1          6           0       -3.098007   -0.275499   -0.146862
      2          6           0       -4.445792   -0.596026   -0.097961
      3          6           0       -5.374198    0.427261    0.074677
      4          6           0       -4.944761    1.747869    0.190277
      5          6           0       -3.590250    2.058590    0.151763
      6          6           0       -2.642744    1.044344   -0.006799
      7          1           0       -4.754851   -1.634040   -0.193689
      8          1           0       -5.673486    2.544159    0.317463
      9          1           0       -3.249437    3.085383    0.248983
     10          6           0       -1.208229    1.349557   -0.016675
     11          6           0       -0.257033    0.383070    0.184438
     12         16           0       -1.886158   -1.539543   -0.464455
     13          8           0       -1.462781   -1.448168   -1.848846
     14          8           0       -2.350088   -2.792883    0.106895
     15          7           0       -0.616100   -0.969118    0.489651
     16          6           0       -0.725886   -1.270929    1.927933
     17          1           0        0.227601   -1.008014    2.396092
     18          1           0       -1.528297   -0.690869    2.407316
     19          1           0       -0.909014   -2.338376    2.062800
     20          8           0       -0.910954    2.619516   -0.254694
     21          1           0        0.079459    2.699140   -0.213890
     22          6           0        1.162088    0.713207    0.075600
     23          8           0        1.553129    1.884878   -0.047724
     24          7           0        2.015069   -0.349066    0.122458
     25          1           0        1.600571   -1.277117    0.126214
     26          6           0        3.397820   -0.283988    0.049877
     27          7           0        4.062891   -1.418077    0.103036
     28          6           0        5.490051    0.286626   -0.087228
     29          6           0        4.249606    0.845270   -0.069912
     30          6           0        6.854195    0.846400   -0.194389
     31          1           0        7.456061    0.576813    0.680255
     32          1           0        7.365954    0.457797   -1.081518
     33          1           0        6.809122    1.935664   -0.266041
     34          8           0        5.394054   -1.050293    0.013703
     35          1           0        3.968335    1.884452   -0.137094
     36          8           0       -6.769443    0.118495    0.128108
     37          1           0       -7.279575    0.901545   -0.091428
 ---------------------------------------------------------------------
                    Distance matrix (angstroms):
                    1          2          3          4          5
     1  C    0.000000
     2  C    1.386237   0.000000
     3  C    2.392488   1.392429   0.000000
     4  C    2.760105   2.413689   1.393479   0.000000
     5  C    2.404049   2.800232   2.418604   1.390227   0.000000
     6  C    1.403163   2.439284   2.801477   2.415175   1.396998
     7  H    2.143119   1.087269   2.169003   3.408930   3.887306
     8  H    3.846968   3.397142   2.151691   1.086874   2.145485
     9  H    3.387499   3.886439   3.407434   2.160211   1.086236
    10  C    2.495800   3.778057   4.267818   3.763396   2.491008
    11  C    2.935065   4.310926   5.118533   4.882367   3.730787
    12  S    1.779677   2.752502   4.040471   4.537709   4.028674
    13  O    2.635501   3.562317   4.745140   5.147510   4.563542
    14  O    2.638370   3.043045   4.417647   5.230460   5.007675
    15  N    2.654453   3.892432   4.976100   5.119468   4.257552
    16  C    3.304938   4.289224   5.284431   5.470968   4.737622
    17  H    4.250043   5.313251   6.231303   6.262095   5.386748
    18  H    3.026607   3.846711   4.634908   4.747097   4.110802
    19  H    3.732259   4.495939   5.615982   6.040778   5.493123
    20  O    3.629868   4.781146   4.983474   4.150827   2.767395
    21  H    4.353075   5.599058   5.914988   5.129430   3.743096
    22  C    4.378977   5.761296   6.542538   6.194940   4.939694
    23  O    5.129339   6.491877   7.080077   6.503691   5.150177
    24  N    5.120692   6.469335   7.430090   7.269179   6.100596
    25  H    4.811907   6.088731   7.180178   7.210826   6.170269
    26  C    6.498811   7.851208   8.800840   8.587596   7.370968
    27  N    7.255783   8.550664   9.615858   9.548226   8.405959
    28  C    8.606642   9.974977  10.866365  10.540282   9.254666
    29  C    7.432998   8.814083   9.633963   9.242227   7.936285
    30  C   10.015350  11.392085  12.238532  11.839594  10.520250
    31  H   10.620683  11.984794  12.845413  12.465626  11.157775
    32  H   10.531182  11.899381  12.792544  12.443289  11.141002
    33  H   10.151584  11.537365  12.281069  11.764236  10.408487
    34  O    8.528844   9.850959  10.869321  10.712235   9.507993
    35  H    7.389091   8.772220   9.457863   8.920152   7.566107
    36  O    3.702740   2.441516   1.430000   2.447078   3.724486
    37  H    4.344424   3.205166   1.970533   2.499396   3.874147
                    6          7          8          9         10
     6  C    0.000000
     7  H    3.416089   0.000000
     8  H    3.397056   4.308424   0.000000
     9  H    2.144607   4.973448   2.484678   0.000000
    10  C    1.466658   4.638072   4.634355   2.692619   0.000000
    11  C    2.483037   4.943893   5.833178   4.032511   1.370882
    12  S    2.730997   2.882992   5.624222   4.874163   3.001165
    13  O    3.316333   3.689420   6.193675   5.305291   3.353940
    14  O    3.850050   2.686290   6.290734   5.948364   4.298712
    15  N    2.899617   4.247156   6.160350   4.840595   2.446066
    16  C    3.574636   4.567898   6.451919   5.307037   3.298652
    17  H    4.269068   5.650106   7.194544   5.784096   3.666223
    18  H    3.175044   4.250347   5.658223   4.677692   3.184574
    19  H    4.328031   4.514232   7.041700   6.179375   4.244360
    20  O    2.354085   5.733411   4.797369   2.437053   1.325829
    21  H    3.192433   6.492104   5.779510   3.383044   1.875742
    22  C    3.820103   6.371205   7.080675   5.011869   2.455984
    23  O    4.279430   7.224590   7.265809   4.959222   2.812940
    24  N    4.863489   6.898038   8.217217   6.287008   3.646139
    25  H    4.838656   6.373470   8.218919   6.524497   3.848271
    26  C    6.185151   8.267285   9.505715   7.455088   4.887595
    27  N    7.144307   8.825376  10.513911   8.589097   5.954732
    28  C    8.168412  10.423930  11.396701   9.182850   6.782459
    29  C    6.895513   9.340372  10.074921   7.832972   5.481341
    30  C    9.500854  11.871080  12.652556  10.358234   8.080064
    31  H   10.132941  12.440178  13.281080  11.003936   8.726555
    32  H   10.083308  12.331988  13.279196  11.016395   8.685951
    33  H    9.497338  12.102623  12.511045  10.137145   8.042613
    34  O    8.305302  10.167794  11.640567   9.584837   7.024980
    35  H    6.665518   9.406219   9.675048   7.327177   5.205519
    36  O    4.231435   2.689519   2.668487   4.605158   5.697682
    37  H    4.639802   3.579649   2.333430   4.596416   6.088313
                   11         12         13         14         15
    11  C    0.000000
    12  S    2.602220   0.000000
    13  O    2.990235   1.450564   0.000000
    14  O    3.804414   1.453456   2.533870   0.000000
    15  N    1.431955   1.687824   2.532770   2.545454   0.000000
    16  C    2.448532   2.672434   3.852076   2.875857   1.473702
    17  H    2.657329   3.596280   4.590275   3.882095   2.085153
    18  H    2.776805   3.015855   4.323507   3.222691   2.141720
    19  H    3.370399   2.824883   4.049704   2.471606   2.106054
    20  O    2.371105   4.277008   4.403622   5.612122   3.676858
    21  H    2.374041   4.678981   4.717176   6.013977   3.799327
    22  C    1.461075   3.828622   3.907041   4.962764   2.482662
    23  O    2.363475   4.871244   4.842412   6.094297   3.624861
    24  N    2.387951   4.120834   4.146023   5.002707   2.728066
    25  H    2.492048   3.546130   3.648869   4.231504   2.267285
    26  C    3.717664   5.455399   5.346579   6.271862   4.095651
    27  N    4.681079   5.977289   5.860358   6.558689   4.716354
    28  C    5.754310   7.608262   7.379342   8.425487   6.260572
    29  C    4.537413   6.594740   6.407482   7.538128   5.223046
    30  C    7.136368   9.064184   8.784894   9.902221   7.718117
    31  H    7.731442   9.647092   9.489080  10.384804   8.221071
    32  H    7.727753   9.485342   9.064660  10.314103   8.259409
    33  H    7.248726   9.366127   9.076341  10.314522   8.008917
    34  O    5.832535   7.312283   7.116430   7.938327   6.029516
    35  H    4.495694   6.790140   6.597990   7.865079   5.436241
    36  O    6.518026   5.191020   5.875665   5.292189   6.259173
    37  H    7.047058   5.931864   6.514965   6.163439   6.945426
                   16         17         18         19         20
    16  C    0.000000
    17  H    1.094274   0.000000
    18  H    1.100064   1.784344   0.000000
    19  H    1.091406   1.781247   1.793455   0.000000
    20  O    4.464714   4.634862   4.292558   5.472794   0.000000
    21  H    4.582296   4.536182   4.576872   5.615778   0.994446
    22  C    3.306415   3.036536   3.827075   4.189342   2.835597
    23  O    4.365346   4.012242   4.707110   5.324691   2.579580
    24  N    3.409165   2.966255   4.229994   4.033924   4.185252
    25  H    2.942555   2.666423   3.916239   3.342851   4.651516
    26  C    4.637467   4.009891   5.476285   5.178918   5.204674
    27  N    5.126820   4.487283   6.090970   5.422865   6.416328
    28  C    6.717494   5.961237   7.512353   7.243017   6.814931
    29  C    5.764131   5.068763   6.471518   6.426151   5.460171
    30  C    8.151378   7.352632   8.910569   8.689368   7.965244
    31  H    8.480278   7.596473   9.236257   8.965726   8.663354
    32  H    8.804724   8.074556   9.622842   9.283341   8.594409
    33  H    8.477742   7.685611   9.141010   9.124721   7.750313
    34  O    6.416122   5.689446   7.333315   6.751787   7.300182
    35  H    6.021335   5.364372   6.581737   6.816182   4.935748
    36  O    6.457124   7.441196   5.772302   6.642580   6.381500
    37  H    7.193630   8.135839   6.469676   7.464707   6.598289
                   21         22         23         24         25
    21  H    0.000000
    22  C    2.280311   0.000000
    23  O    1.691844   1.241344   0.000000
    24  N    3.626469   1.363157   2.287544   0.000000
    25  H    4.270840   2.038681   3.167131   1.016416   0.000000
    26  C    4.469916   2.448174   2.848928   1.386183   2.054808
    27  N    5.737565   3.599692   4.151042   2.310138   2.466460
    28  C    5.925434   4.351982   4.249156   3.538866   4.197488
    29  C    4.565927   3.093765   2.890029   2.540984   3.400056
    30  C    7.023537   5.700063   5.403818   4.994664   5.675621
    31  H    7.727744   6.324421   6.089794   5.547322   6.166910
    32  H    7.672640   6.316020   6.074062   5.543695   6.140699
    33  H    6.773033   5.787928   5.260770   5.324835   6.132278
    34  O    6.508069   4.585117   4.834429   3.452693   3.801923
    35  H    3.974037   3.048291   2.416859   2.978459   3.958681
    36  O    7.326947   7.953969   8.509773   8.796948   8.485568
    37  H    7.576393   8.445416   8.887380   9.380842   9.146089
                   26         27         28         29         30
    26  C    0.000000
    27  N    1.315790   0.000000
    28  C    2.172977   2.231367   0.000000
    29  C    1.419547   2.277611   1.360546   0.000000
    30  C    3.644718   3.606618   1.478418   2.607562   0.000000
    31  H    4.196150   3.978237   2.130360   3.303963   1.095409
    32  H    4.192420   3.978982   2.130006   3.299259   1.095403
    33  H    4.082112   4.350354   2.119257   2.789005   1.092548
    34  O    2.138570   1.383922   1.344156   2.215832   2.402657
    35  H    2.250017   3.312597   2.207069   1.078669   3.067413
    36  O   10.175527  10.940802  12.262538  11.044766  13.646881
    37  H   10.743939  11.578861  12.784424  11.529339  14.134253
                   31         32         33         34         35
    31  H    0.000000
    32  H    1.768086   0.000000
    33  H    1.777775   1.777401   0.000000
    34  O    2.709915   2.713344   3.316114   0.000000
    35  H    3.813425   3.804089   2.844173   3.266212   0.000000
    36  O   14.243591  14.191116  13.705287  12.220058  10.885257
    37  H   14.759401  14.685664  14.127678  12.823479  11.290867
                   36         37
    36  O    0.000000
    37  H    0.960000   0.000000
 Stoichiometry    C14H13N3O6S
 Framework group  C1[X(C14H13N3O6S)]
 Deg. of freedom   105
 Full point group                 C1      NOp   1
 Largest Abelian subgroup         C1      NOp   1
 Largest concise Abelian subgroup C1      NOp   1
                         Standard orientation:                         
 ---------------------------------------------------------------------
 Center     Atomic      Atomic             Coordinates (Angstroms)
 Number     Number       Type             X           Y           Z
 ---------------------------------------------------------------------
      1          6           0       -2.793886   -0.299669   -0.157602
      2          6           0       -4.140028   -0.627464   -0.111722
      3          6           0       -5.074323    0.390789    0.058902
      4          6           0       -4.652274    1.713686    0.175531
      5          6           0       -3.299376    2.031711    0.140052
      6          6           0       -2.346062    1.022601   -0.016453
      7          1           0       -4.443270   -1.667124   -0.208195
      8          1           0       -5.385565    2.506025    0.301136
      9          1           0       -2.964324    3.060321    0.238088
     10          6           0       -0.913196    1.335548   -0.023116
     11          6           0        0.042749    0.374192    0.180063
     12         16           0       -1.574532   -1.557137   -0.472563
     13          8           0       -1.148571   -1.463387   -1.856002
     14          8           0       -2.032966   -2.812999    0.097683
     15          7           0       -0.309698   -0.979933    0.484402
     16          6           0       -0.421059   -1.282428    1.922419
     17          1           0        0.529951   -1.014405    2.392716
     18          1           0       -1.227653   -0.706736    2.400044
     19          1           0       -0.598726   -2.350856    2.056819
     20          8           0       -0.622246    2.607108   -0.260403
     21          1           0        0.367630    2.692070   -0.217388
     22          6           0        1.460308    0.711986    0.074406
     23          8           0        1.845297    1.885758   -0.047983
     24          7           0        2.318900   -0.345673    0.123106
     25          1           0        1.909406   -1.275947    0.125888
     26          6           0        3.701438   -0.273133    0.053610
     27          7           0        4.372496   -1.403622    0.108189
     28          6           0        5.790861    0.308767   -0.078801
     29          6           0        4.547385    0.860711   -0.064219
     30          6           0        7.152201    0.875898   -0.182892
     31          1           0        7.753562    0.609503    0.693077
     32          1           0        7.668024    0.490120   -1.068899
     33          1           0        7.101413    1.964908   -0.254584
     34          8           0        5.701852   -1.028657    0.021843
     35          1           0        4.260663    1.898365   -0.131971
     36          8           0       -6.467997    0.074498    0.109207
     37          1           0       -6.981856    0.854800   -0.111423
 ---------------------------------------------------------------------
 Rotational constants (GHZ):           0.6219761           0.1069525           0.0958067
 Standard basis: 6-31+G(d,p) (6D, 7F)
 There are   525 symmetry adapted cartesian basis functions of A   symmetry.
 There are   525 symmetry adapted basis functions of A   symmetry.
   525 basis functions,   883 primitive gaussians,   525 cartesian basis functions
    91 alpha electrons       91 beta electrons
       nuclear repulsion energy      2271.1524199397 Hartrees.
 NAtoms=   37 NActive=   37 NUniq=   37 SFac= 1.00D+00 NAtFMM=   60 NAOKFM=F Big=F
 Integral buffers will be    131072 words long.
 Raffenetti 2 integral format.
 Two-electron integral symmetry is turned on.
 One-electron integrals computed using PRISM.
 NBasis=   525 RedAO= T EigKep=  1.51D-06  NBF=   525
 NBsUse=   522 1.00D-06 EigRej=  6.75D-07 NBFU=   522
 ExpMin= 4.05D-02 ExpMax= 2.19D+04 ExpMxC= 3.30D+03 IAcc=3 IRadAn=         5 AccDes= 0.00D+00
 Harris functional with IExCor= 1009 and IRadAn=       5 diagonalized for initial guess.
 HarFok:  IExCor= 1009 AccDes= 0.00D+00 IRadAn=         5 IDoV= 1 UseB2=F ITyADJ=14
 ICtDFT=  3500011 ScaDFX=  1.000000  1.000000  1.000000  1.000000
 FoFCou: FMM=F IPFlag=           0 FMFlag=      100000 FMFlg1=           0
         NFxFlg=           0 DoJE=T BraDBF=F KetDBF=T FulRan=T
         wScrn=  0.000000 ICntrl=       500 IOpCl=  0 I1Cent=   200000004 NGrid=           0
         NMat0=    1 NMatS0=      1 NMatT0=    0 NMatD0=    1 NMtDS0=    0 NMtDT0=    0
 Petite list used in FoFCou.
 Requested convergence on RMS density matrix=1.00D-08 within 128 cycles.
 Requested convergence on MAX density matrix=1.00D-06.
 Requested convergence on             energy=1.00D-06.
 No special actions if energy rises.
 SCF Done:  E(RM06) =  -1554.36410921     A.U. after   16 cycles
            NFock= 16  Conv=0.75D-08     -V/T= 2.0085

 **********************************************************************

            Population analysis using the SCF Density.

 **********************************************************************

 Orbital symmetries:
       Occupied  (A) (A) (A) (A) (A) (A) (A) (A) (A) (A) (A) (A)
                 (A) (A) (A) (A) (A) (A) (A) (A) (A) (A) (A) (A)
                 (A) (A) (A) (A) (A) (A) (A) (A) (A) (A) (A) (A)
                 (A) (A) (A) (A) (A) (A) (A) (A) (A) (A) (A) (A)
                 (A) (A) (A) (A) (A) (A) (A) (A) (A) (A) (A) (A)
                 (A) (A) (A) (A) (A) (A) (A) (A) (A) (A) (A) (A)
                 (A) (A) (A) (A) (A) (A) (A) (A) (A) (A) (A) (A)
                 (A) (A) (A) (A) (A) (A) (A)
       Virtual   (A) (A) (A) (A) (A) (A) (A) (A) (A) (A) (A) (A)
                 (A) (A) (A) (A) (A) (A) (A) (A) (A) (A) (A) (A)
                 (A) (A) (A) (A) (A) (A) (A) (A) (A) (A) (A) (A)
                 (A) (A) (A) (A) (A) (A) (A) (A) (A) (A) (A) (A)
                 (A) (A) (A) (A) (A) (A) (A) (A) (A) (A) (A) (A)
                 (A) (A) (A) (A) (A) (A) (A) (A) (A) (A) (A) (A)
                 (A) (A) (A) (A) (A) (A) (A) (A) (A) (A) (A) (A)
                 (A) (A) (A) (A) (A) (A) (A) (A) (A) (A) (A) (A)
                 (A) (A) (A) (A) (A) (A) (A) (A) (A) (A) (A) (A)
                 (A) (A) (A) (A) (A) (A) (A) (A) (A) (A) (A) (A)
                 (A) (A) (A) (A) (A) (A) (A) (A) (A) (A) (A) (A)
                 (A) (A) (A) (A) (A) (A) (A) (A) (A) (A) (A) (A)
                 (A) (A) (A) (A) (A) (A) (A) (A) (A) (A) (A) (A)
                 (A) (A) (A) (A) (A) (A) (A) (A) (A) (A) (A) (A)
                 (A) (A) (A) (A) (A) (A) (A) (A) (A) (A) (A) (A)
                 (A) (A) (A) (A) (A) (A) (A) (A) (A) (A) (A) (A)
                 (A) (A) (A) (A) (A) (A) (A) (A) (A) (A) (A) (A)
                 (A) (A) (A) (A) (A) (A) (A) (A) (A) (A) (A) (A)
                 (A) (A) (A) (A) (A) (A) (A) (A) (A) (A) (A) (A)
                 (A) (A) (A) (A) (A) (A) (A) (A) (A) (A) (A) (A)
                 (A) (A) (A) (A) (A) (A) (A) (A) (A) (A) (A) (A)
                 (A) (A) (A) (A) (A) (A) (A) (A) (A) (A) (A) (A)
                 (A) (A) (A) (A) (A) (A) (A) (A) (A) (A) (A) (A)
                 (A) (A) (A) (A) (A) (A) (A) (A) (A) (A) (A) (A)
                 (A) (A) (A) (A) (A) (A) (A) (A) (A) (A) (A) (A)
                 (A) (A) (A) (A) (A) (A) (A) (A) (A) (A) (A) (A)
                 (A) (A) (A) (A) (A) (A) (A) (A) (A) (A) (A) (A)
                 (A) (A) (A) (A) (A) (A) (A) (A) (A) (A) (A) (A)
                 (A) (A) (A) (A) (A) (A) (A) (A) (A) (A) (A) (A)
                 (A) (A) (A) (A) (A) (A) (A) (A) (A) (A) (A) (A)
                 (A) (A) (A) (A) (A) (A) (A) (A) (A) (A) (A) (A)
                 (A) (A) (A) (A) (A) (A) (A) (A) (A) (A) (A) (A)
                 (A) (A) (A) (A) (A) (A) (A) (A) (A) (A) (A) (A)
                 (A) (A) (A) (A) (A) (A) (A) (A) (A) (A) (A) (A)
                 (A) (A) (A) (A) (A) (A) (A) (A) (A) (A) (A) (A)
                 (A) (A) (A) (A) (A) (A) (A) (A) (A) (A) (A)
 The electronic state is 1-A.
 Alpha  occ. eigenvalues --  -89.31351 -19.33428 -19.30112 -19.29599 -19.25917
 Alpha  occ. eigenvalues --  -19.25572 -19.24436 -14.47907 -14.47723 -14.46416
 Alpha  occ. eigenvalues --  -10.40143 -10.37846 -10.37365 -10.34743 -10.34471
 Alpha  occ. eigenvalues --  -10.33066 -10.31982 -10.31835 -10.31296 -10.31120
 Alpha  occ. eigenvalues --  -10.30930 -10.30828 -10.28109 -10.27082  -8.27953
 Alpha  occ. eigenvalues --   -6.19766  -6.19674  -6.19581  -1.18211  -1.16749
 Alpha  occ. eigenvalues --   -1.13242  -1.10111  -1.09295  -1.05909  -1.00203
 Alpha  occ. eigenvalues --   -0.98586  -0.92270  -0.88417  -0.83603  -0.83336
 Alpha  occ. eigenvalues --   -0.82147  -0.79644  -0.74985  -0.74723  -0.71755
 Alpha  occ. eigenvalues --   -0.69446  -0.67535  -0.65274  -0.63346  -0.62183
 Alpha  occ. eigenvalues --   -0.61053  -0.60453  -0.57247  -0.55594  -0.54117
 Alpha  occ. eigenvalues --   -0.53395  -0.52943  -0.52394  -0.51242  -0.51055
 Alpha  occ. eigenvalues --   -0.50012  -0.49148  -0.48438  -0.48184  -0.47377
 Alpha  occ. eigenvalues --   -0.46720  -0.46173  -0.45262  -0.44424  -0.44129
 Alpha  occ. eigenvalues --   -0.43584  -0.43483  -0.43235  -0.42736  -0.42005
 Alpha  occ. eigenvalues --   -0.40584  -0.40457  -0.39052  -0.37988  -0.37344
 Alpha  occ. eigenvalues --   -0.36565  -0.35399  -0.34295  -0.33482  -0.32901
 Alpha  occ. eigenvalues --   -0.30967  -0.30552  -0.29428  -0.28839  -0.27473
 Alpha  occ. eigenvalues --   -0.25903
 Alpha virt. eigenvalues --   -0.08643  -0.05752  -0.04340  -0.02806  -0.02275
 Alpha virt. eigenvalues --   -0.02246  -0.01965  -0.01061  -0.00885  -0.00543
 Alpha virt. eigenvalues --   -0.00222   0.00463   0.00795   0.01178   0.01326
 Alpha virt. eigenvalues --    0.01391   0.02002   0.02314   0.02825   0.03377
 Alpha virt. eigenvalues --    0.04051   0.04283   0.04442   0.04780   0.05277
 Alpha virt. eigenvalues --    0.05370   0.05545   0.05810   0.06460   0.06868
 Alpha virt. eigenvalues --    0.06946   0.07421   0.07782   0.08097   0.08438
 Alpha virt. eigenvalues --    0.08634   0.08776   0.09166   0.09642   0.10037
 Alpha virt. eigenvalues --    0.10322   0.10557   0.10841   0.11284   0.11833
 Alpha virt. eigenvalues --    0.12173   0.12419   0.12725   0.13011   0.13674
 Alpha virt. eigenvalues --    0.13846   0.13988   0.14303   0.14435   0.15230
 Alpha virt. eigenvalues --    0.15573   0.16020   0.16183   0.16661   0.17004
 Alpha virt. eigenvalues --    0.17111   0.17470   0.17728   0.18298   0.18895
 Alpha virt. eigenvalues --    0.19367   0.19392   0.19708   0.20004   0.20295
 Alpha virt. eigenvalues --    0.20548   0.20760   0.21016   0.21360   0.21672
 Alpha virt. eigenvalues --    0.21793   0.22630   0.23195   0.23257   0.23557
 Alpha virt. eigenvalues --    0.23840   0.24171   0.24914   0.24952   0.25099
 Alpha virt. eigenvalues --    0.25249   0.25685   0.25994   0.26346   0.26466
 Alpha virt. eigenvalues --    0.27209   0.27356   0.27732   0.28324   0.28629
 Alpha virt. eigenvalues --    0.28854   0.29233   0.29536   0.29830   0.29949
 Alpha virt. eigenvalues --    0.30428   0.30515   0.30814   0.31431   0.31908
 Alpha virt. eigenvalues --    0.32190   0.32511   0.32719   0.32748   0.32992
 Alpha virt. eigenvalues --    0.33421   0.33741   0.34278   0.34841   0.35306
 Alpha virt. eigenvalues --    0.35910   0.36136   0.36547   0.37344   0.38043
 Alpha virt. eigenvalues --    0.38498   0.39364   0.39574   0.40086   0.40733
 Alpha virt. eigenvalues --    0.41971   0.42786   0.43535   0.46870   0.47295
 Alpha virt. eigenvalues --    0.48491   0.49001   0.50233   0.51258   0.52464
 Alpha virt. eigenvalues --    0.53918   0.54307   0.55471   0.57563   0.59586
 Alpha virt. eigenvalues --    0.60812   0.62603   0.62740   0.63087   0.64287
 Alpha virt. eigenvalues --    0.64734   0.65641   0.66322   0.67510   0.68589
 Alpha virt. eigenvalues --    0.69521   0.70038   0.70810   0.71199   0.71277
 Alpha virt. eigenvalues --    0.71895   0.72161   0.72887   0.73715   0.74439
 Alpha virt. eigenvalues --    0.75364   0.75629   0.76641   0.78114   0.78201
 Alpha virt. eigenvalues --    0.79461   0.81871   0.82254   0.83234   0.84708
 Alpha virt. eigenvalues --    0.85339   0.86688   0.87562   0.88057   0.88382
 Alpha virt. eigenvalues --    0.89068   0.90450   0.90830   0.91873   0.93007
 Alpha virt. eigenvalues --    0.93248   0.94405   0.94729   0.95665   0.96340
 Alpha virt. eigenvalues --    0.97229   0.97700   0.98836   0.99721   1.00455
 Alpha virt. eigenvalues --    1.00793   1.02676   1.03410   1.03863   1.05078
 Alpha virt. eigenvalues --    1.05182   1.08013   1.08694   1.09416   1.09703
 Alpha virt. eigenvalues --    1.10217   1.10627   1.11191   1.12796   1.13902
 Alpha virt. eigenvalues --    1.15142   1.16066   1.16186   1.17339   1.17788
 Alpha virt. eigenvalues --    1.18413   1.19177   1.21099   1.21259   1.21818
 Alpha virt. eigenvalues --    1.22841   1.23904   1.24171   1.25003   1.25495
 Alpha virt. eigenvalues --    1.26537   1.27124   1.28357   1.28934   1.29783
 Alpha virt. eigenvalues --    1.30159   1.30810   1.31786   1.32039   1.32921
 Alpha virt. eigenvalues --    1.33124   1.33982   1.34812   1.35114   1.35603
 Alpha virt. eigenvalues --    1.36010   1.36166   1.37583   1.38847   1.39554
 Alpha virt. eigenvalues --    1.40444   1.40546   1.41992   1.42657   1.43303
 Alpha virt. eigenvalues --    1.45000   1.45872   1.47038   1.47976   1.49805
 Alpha virt. eigenvalues --    1.50461   1.50689   1.51184   1.53094   1.55275
 Alpha virt. eigenvalues --    1.55575   1.56912   1.59755   1.61093   1.61956
 Alpha virt. eigenvalues --    1.64313   1.66655   1.67574   1.68284   1.68352
 Alpha virt. eigenvalues --    1.69639   1.70547   1.71659   1.73063   1.74500
 Alpha virt. eigenvalues --    1.75340   1.76344   1.78758   1.79804   1.80873
 Alpha virt. eigenvalues --    1.81700   1.81912   1.82244   1.82656   1.84665
 Alpha virt. eigenvalues --    1.85687   1.85926   1.86897   1.87319   1.88432
 Alpha virt. eigenvalues --    1.88757   1.89057   1.89465   1.90646   1.91033
 Alpha virt. eigenvalues --    1.91872   1.92200   1.93407   1.94315   1.95425
 Alpha virt. eigenvalues --    1.95939   1.97852   1.98869   1.99904   2.00565
 Alpha virt. eigenvalues --    2.01670   2.02614   2.02710   2.03048   2.03436
 Alpha virt. eigenvalues --    2.04051   2.04471   2.06800   2.07526   2.09217
 Alpha virt. eigenvalues --    2.10802   2.11192   2.12164   2.12892   2.13984
 Alpha virt. eigenvalues --    2.15029   2.16338   2.18367   2.19053   2.20834
 Alpha virt. eigenvalues --    2.22583   2.23456   2.25160   2.26568   2.27229
 Alpha virt. eigenvalues --    2.29031   2.30191   2.30842   2.31375   2.31844
 Alpha virt. eigenvalues --    2.32899   2.35894   2.36711   2.37241   2.38749
 Alpha virt. eigenvalues --    2.40983   2.41879   2.42881   2.44829   2.45251
 Alpha virt. eigenvalues --    2.45799   2.46717   2.48211   2.50164   2.50859
 Alpha virt. eigenvalues --    2.51278   2.52754   2.52828   2.53363   2.54690
 Alpha virt. eigenvalues --    2.56996   2.57247   2.58120   2.59467   2.59679
 Alpha virt. eigenvalues --    2.60043   2.62286   2.62804   2.65678   2.66534
 Alpha virt. eigenvalues --    2.67183   2.67492   2.69201   2.70190   2.72641
 Alpha virt. eigenvalues --    2.74130   2.75225   2.77568   2.78308   2.78529
 Alpha virt. eigenvalues --    2.80648   2.83436   2.85882   2.86389   2.88407
 Alpha virt. eigenvalues --    2.91001   2.92320   2.93066   2.94971   2.96349
 Alpha virt. eigenvalues --    2.97403   2.98085   2.99799   3.00750   3.03980
 Alpha virt. eigenvalues --    3.07289   3.10478   3.14109   3.15449   3.17225
 Alpha virt. eigenvalues --    3.20920   3.23895   3.25300   3.25338   3.27652
 Alpha virt. eigenvalues --    3.31983   3.36852   3.37769   3.39055   3.39843
 Alpha virt. eigenvalues --    3.41177   3.42872   3.46362   3.55058   3.62822
 Alpha virt. eigenvalues --    3.64886   3.68978   3.96643   4.17212   4.22738
 Alpha virt. eigenvalues --    4.25611   4.28153   4.31449   4.32058   4.33666
 Alpha virt. eigenvalues --    4.37316   4.38310   4.39701   4.42874   4.45249
 Alpha virt. eigenvalues --    4.48944   4.50335   4.51175   4.56568   4.59748
 Alpha virt. eigenvalues --    4.64164   4.69320   4.74291   4.79087   4.86150
 Alpha virt. eigenvalues --    4.89615
          Condensed to atoms (all electrons):
               1          2          3          4          5          6
     1  C   24.916353  -5.498790  -0.453752   0.147056   0.385913  -6.558485
     2  C   -5.498790  16.555759  -3.058181  -2.279409   2.806653  -3.327474
     3  C   -0.453752  -3.058181  14.453251  -0.958913   0.636560  -3.296148
     4  C    0.147056  -2.279409  -0.958913  12.474778  -4.990604   2.745812
     5  C    0.385913   2.806653   0.636560  -4.990604  16.307494  -9.309774
     6  C   -6.558485  -3.327474  -3.296148   2.745812  -9.309774  34.699744
     7  H   -0.009196   0.239248   0.042523   0.045834  -0.008055  -0.078266
     8  H    0.003053   0.003071   0.081559   0.190749  -0.016144   0.073199
     9  H   -0.010920  -0.018352  -0.011078  -0.044713   0.277998  -0.106806
    10  C   -2.767463  -2.322522  -0.851660   0.714933  -2.755546  10.568053
    11  C    1.171267   0.522041   0.480708  -2.230298   1.844719 -14.192432
    12  S   -2.439262   1.529321  -0.891434  -0.089483   0.836581  -1.972616
    13  O    0.155457  -0.062590  -0.020852   0.002466  -0.012355  -0.024679
    14  O   -0.170567   0.130990   0.170329  -0.016710   0.045042  -0.507610
    15  N   -1.163725   0.139205  -0.313152   0.280917  -0.154555   1.914830
    16  C   -0.022700   0.122791   0.078926   0.027095  -0.085369   0.368476
    17  H    0.002246  -0.002566   0.000258  -0.002158  -0.002080  -0.077698
    18  H    0.002948  -0.014673  -0.001266   0.009015  -0.011765   0.144906
    19  H    0.010230   0.002205   0.000923   0.000385   0.000150  -0.005708
    20  O   -0.161289   0.012007  -0.000626   0.042758   0.098570  -0.672936
    21  H    0.018889   0.002587   0.000026  -0.007031  -0.009804   0.106055
    22  C   -0.236475   0.254516  -0.044272  -0.335010   0.243873  -4.648156
    23  O    0.000371  -0.003880  -0.000090   0.000057  -0.009934   0.080088
    24  N   -0.146555  -0.041686  -0.014290   0.010261   0.027365  -0.185045
    25  H   -0.003988  -0.001898  -0.000300   0.000109  -0.000092   0.007643
    26  C   -0.084976  -0.022536  -0.007210   0.002095   0.019622  -0.386993
    27  N   -0.003308  -0.000491  -0.000067   0.000141   0.001304   0.001598
    28  C   -0.010720   0.000569  -0.000014   0.000406   0.006184  -0.015142
    29  C   -0.012175   0.001090  -0.000981  -0.000736   0.003142  -0.052865
    30  C   -0.001189  -0.000020  -0.000006   0.000036   0.000492  -0.002412
    31  H    0.000000   0.000000   0.000000  -0.000000  -0.000000  -0.000001
    32  H   -0.000000  -0.000000  -0.000000   0.000000   0.000000   0.000000
    33  H    0.000000   0.000000  -0.000000  -0.000000  -0.000000   0.000002
    34  O    0.000278   0.000044   0.000002  -0.000004  -0.000096   0.000641
    35  H    0.000083  -0.000006   0.000001  -0.000004  -0.000133  -0.000035
    36  O   -0.036010  -0.175727   0.214569  -0.038496   0.060990   0.012533
    37  H    0.003217   0.083163  -0.001483  -0.091689   0.023255  -0.008103
               7          8          9         10         11         12
     1  C   -0.009196   0.003053  -0.010920  -2.767463   1.171267  -2.439262
     2  C    0.239248   0.003071  -0.018352  -2.322522   0.522041   1.529321
     3  C    0.042523   0.081559  -0.011078  -0.851660   0.480708  -0.891434
     4  C    0.045834   0.190749  -0.044713   0.714933  -2.230298  -0.089483
     5  C   -0.008055  -0.016144   0.277998  -2.755546   1.844719   0.836581
     6  C   -0.078266   0.073199  -0.106806  10.568053 -14.192432  -1.972616
     7  H    0.485060  -0.000123   0.000012   0.002384  -0.003412   0.088570
     8  H   -0.000123   0.545040  -0.004425  -0.015231  -0.000493   0.000533
     9  H    0.000012  -0.004425   0.508325   0.145793   0.063605   0.004084
    10  C    0.002384  -0.015231   0.145793  26.162155 -12.065001  -1.309419
    11  C   -0.003412  -0.000493   0.063605 -12.065001  28.027897  -0.808012
    12  S    0.088570   0.000533   0.004084  -1.309419  -0.808012  18.592288
    13  O   -0.000853   0.000007   0.000013   0.023242  -0.217579   0.453131
    14  O    0.001905  -0.000001   0.000014  -0.204669   0.427031   0.567096
    15  N   -0.000096  -0.000013   0.000121   1.552419  -4.042727   0.255883
    16  C   -0.001469  -0.000023   0.000023   0.247870  -1.412738   0.106997
    17  H    0.000000   0.000000   0.000000  -0.179394   0.069339   0.053537
    18  H   -0.000005  -0.000000  -0.000007   0.112961  -0.105655  -0.101944
    19  H    0.000000  -0.000000  -0.000000   0.018125   0.017823  -0.000211
    20  O    0.000016   0.000242  -0.003259  -0.044597   0.460704   0.014139
    21  H   -0.000000   0.000000  -0.000010   0.151313  -0.193907   0.000499
    22  C   -0.000385  -0.000347   0.015881  -8.435544   8.295745  -0.067305
    23  O   -0.000000   0.000000  -0.000139  -0.016595  -0.222609  -0.006637
    24  N   -0.000037   0.000000  -0.000018  -0.452566   0.270900  -0.048199
    25  H   -0.000000  -0.000000   0.000000   0.024695  -0.003232  -0.006111
    26  C    0.000016  -0.000000   0.000086  -1.577814   0.388484  -0.061377
    27  N   -0.000000   0.000000  -0.000000   0.016469  -0.071145  -0.000889
    28  C    0.000000  -0.000000   0.000001  -0.084013  -0.232720   0.020283
    29  C   -0.000000  -0.000000   0.000001  -0.488467   0.177971  -0.024606
    30  C    0.000000  -0.000000   0.000000  -0.019113  -0.036158   0.001400
    31  H    0.000000   0.000000   0.000000  -0.000043  -0.000114   0.000000
    32  H    0.000000   0.000000  -0.000000   0.000039  -0.000032  -0.000000
    33  H    0.000000  -0.000000   0.000000  -0.000015   0.000187  -0.000000
    34  O    0.000000  -0.000000   0.000000   0.002766   0.019073   0.000306
    35  H    0.000000   0.000000  -0.000000   0.000438  -0.002141   0.000028
    36  O   -0.005065  -0.013026  -0.000454   0.001406   0.001008  -0.015913
    37  H   -0.000006   0.004348  -0.000005  -0.000081   0.000161   0.002084
              13         14         15         16         17         18
     1  C    0.155457  -0.170567  -1.163725  -0.022700   0.002246   0.002948
     2  C   -0.062590   0.130990   0.139205   0.122791  -0.002566  -0.014673
     3  C   -0.020852   0.170329  -0.313152   0.078926   0.000258  -0.001266
     4  C    0.002466  -0.016710   0.280917   0.027095  -0.002158   0.009015
     5  C   -0.012355   0.045042  -0.154555  -0.085369  -0.002080  -0.011765
     6  C   -0.024679  -0.507610   1.914830   0.368476  -0.077698   0.144906
     7  H   -0.000853   0.001905  -0.000096  -0.001469   0.000000  -0.000005
     8  H    0.000007  -0.000001  -0.000013  -0.000023   0.000000  -0.000000
     9  H    0.000013   0.000014   0.000121   0.000023   0.000000  -0.000007
    10  C    0.023242  -0.204669   1.552419   0.247870  -0.179394   0.112961
    11  C   -0.217579   0.427031  -4.042727  -1.412738   0.069339  -0.105655
    12  S    0.453131   0.567096   0.255883   0.106997   0.053537  -0.101944
    13  O    8.383326  -0.211074   0.002734   0.069269  -0.000160  -0.001725
    14  O   -0.211074   8.616278  -0.289068  -0.119283   0.001301  -0.001003
    15  N    0.002734  -0.289068  10.877008   0.514591  -0.027696  -0.033509
    16  C    0.069269  -0.119283   0.514591   5.583580   0.385362   0.397326
    17  H   -0.000160   0.001301  -0.027696   0.385362   0.529203  -0.031043
    18  H   -0.001725  -0.001003  -0.033509   0.397326  -0.031043   0.533354
    19  H    0.000689  -0.001000  -0.085509   0.415530  -0.018371  -0.027885
    20  O   -0.000177  -0.000580   0.005357  -0.004431   0.000702  -0.000967
    21  H   -0.000038   0.000020  -0.001362  -0.001048  -0.000006   0.000004
    22  C   -0.066223   0.048492  -1.181135  -0.285784   0.086273  -0.036562
    23  O    0.000634   0.000201   0.026302   0.011553  -0.001463   0.000400
    24  N   -0.029231   0.001433  -0.267433  -0.114778   0.009407  -0.001085
    25  H   -0.000335  -0.000268   0.008932  -0.008040  -0.000915   0.000077
    26  C   -0.033898   0.005890  -0.355763  -0.121158   0.033946  -0.005274
    27  N    0.000142  -0.000164  -0.008661  -0.005222  -0.000315   0.000020
    28  C    0.000448  -0.000350   0.059068   0.014023   0.000931  -0.000147
    29  C   -0.003061   0.000571  -0.075213  -0.033124  -0.001952   0.000396
    30  C    0.000054  -0.000011   0.005343   0.001569  -0.000006  -0.000003
    31  H    0.000000  -0.000000   0.000001   0.000001   0.000000  -0.000000
    32  H    0.000000  -0.000000  -0.000000  -0.000001   0.000000  -0.000000
    33  H   -0.000000   0.000000  -0.000001   0.000001  -0.000000  -0.000000
    34  O   -0.000021   0.000001  -0.000569  -0.000229   0.000028   0.000000
    35  H   -0.000001   0.000000   0.000112  -0.000041   0.000000  -0.000000
    36  O    0.000041   0.000253   0.000436   0.000215   0.000000  -0.000023
    37  H    0.000006   0.000004  -0.000010  -0.000012  -0.000000   0.000000
              19         20         21         22         23         24
     1  C    0.010230  -0.161289   0.018889  -0.236475   0.000371  -0.146555
     2  C    0.002205   0.012007   0.002587   0.254516  -0.003880  -0.041686
     3  C    0.000923  -0.000626   0.000026  -0.044272  -0.000090  -0.014290
     4  C    0.000385   0.042758  -0.007031  -0.335010   0.000057   0.010261
     5  C    0.000150   0.098570  -0.009804   0.243873  -0.009934   0.027365
     6  C   -0.005708  -0.672936   0.106055  -4.648156   0.080088  -0.185045
     7  H    0.000000   0.000016  -0.000000  -0.000385  -0.000000  -0.000037
     8  H   -0.000000   0.000242   0.000000  -0.000347   0.000000   0.000000
     9  H   -0.000000  -0.003259  -0.000010   0.015881  -0.000139  -0.000018
    10  C    0.018125  -0.044597   0.151313  -8.435544  -0.016595  -0.452566
    11  C    0.017823   0.460704  -0.193907   8.295745  -0.222609   0.270900
    12  S   -0.000211   0.014139   0.000499  -0.067305  -0.006637  -0.048199
    13  O    0.000689  -0.000177  -0.000038  -0.066223   0.000634  -0.029231
    14  O   -0.001000  -0.000580   0.000020   0.048492   0.000201   0.001433
    15  N   -0.085509   0.005357  -0.001362  -1.181135   0.026302  -0.267433
    16  C    0.415530  -0.004431  -0.001048  -0.285784   0.011553  -0.114778
    17  H   -0.018371   0.000702  -0.000006   0.086273  -0.001463   0.009407
    18  H   -0.027885  -0.000967   0.000004  -0.036562   0.000400  -0.001085
    19  H    0.485446  -0.000022   0.000000  -0.011976   0.000077  -0.004516
    20  O   -0.000022   8.470814   0.156225   0.167642  -0.020356  -0.002424
    21  H    0.000000   0.156225   0.307211  -0.054019   0.067225   0.007284
    22  C   -0.011976   0.167642  -0.054019  12.547463   0.280937   0.759577
    23  O    0.000077  -0.020356   0.067225   0.280937   8.480761  -0.193234
    24  N   -0.004516  -0.002424   0.007284   0.759577  -0.193234   7.631158
    25  H    0.000003   0.000063  -0.000050  -0.082159   0.008667   0.252922
    26  C   -0.001023  -0.009317   0.010520  -1.177134   0.107609   0.341300
    27  N   -0.000050   0.000047  -0.000027  -0.315633   0.005748  -0.163505
    28  C    0.000171   0.000654  -0.000786  -1.006622   0.099624  -0.314130
    29  C   -0.000250   0.016189  -0.007898   0.806549  -0.045894  -0.022163
    30  C    0.000004   0.000118  -0.000045  -0.222559   0.008565  -0.062286
    31  H   -0.000000   0.000000   0.000000   0.000389  -0.000003   0.000037
    32  H    0.000000  -0.000000   0.000000   0.001778  -0.000007  -0.000010
    33  H   -0.000000  -0.000000  -0.000000  -0.002089   0.000000   0.000107
    34  O   -0.000002   0.000004   0.000000   0.077231  -0.001842   0.043942
    35  H    0.000000  -0.000067   0.000036   0.033308  -0.008098  -0.001503
    36  O    0.000001  -0.000006   0.000000  -0.000155   0.000000   0.000001
    37  H    0.000000   0.000003   0.000000   0.000011   0.000000  -0.000000
              25         26         27         28         29         30
     1  C   -0.003988  -0.084976  -0.003308  -0.010720  -0.012175  -0.001189
     2  C   -0.001898  -0.022536  -0.000491   0.000569   0.001090  -0.000020
     3  C   -0.000300  -0.007210  -0.000067  -0.000014  -0.000981  -0.000006
     4  C    0.000109   0.002095   0.000141   0.000406  -0.000736   0.000036
     5  C   -0.000092   0.019622   0.001304   0.006184   0.003142   0.000492
     6  C    0.007643  -0.386993   0.001598  -0.015142  -0.052865  -0.002412
     7  H   -0.000000   0.000016  -0.000000   0.000000  -0.000000   0.000000
     8  H   -0.000000  -0.000000   0.000000  -0.000000  -0.000000  -0.000000
     9  H    0.000000   0.000086  -0.000000   0.000001   0.000001   0.000000
    10  C    0.024695  -1.577814   0.016469  -0.084013  -0.488467  -0.019113
    11  C   -0.003232   0.388484  -0.071145  -0.232720   0.177971  -0.036158
    12  S   -0.006111  -0.061377  -0.000889   0.020283  -0.024606   0.001400
    13  O   -0.000335  -0.033898   0.000142   0.000448  -0.003061   0.000054
    14  O   -0.000268   0.005890  -0.000164  -0.000350   0.000571  -0.000011
    15  N    0.008932  -0.355763  -0.008661   0.059068  -0.075213   0.005343
    16  C   -0.008040  -0.121158  -0.005222   0.014023  -0.033124   0.001569
    17  H   -0.000915   0.033946  -0.000315   0.000931  -0.001952  -0.000006
    18  H    0.000077  -0.005274   0.000020  -0.000147   0.000396  -0.000003
    19  H    0.000003  -0.001023  -0.000050   0.000171  -0.000250   0.000004
    20  O    0.000063  -0.009317   0.000047   0.000654   0.016189   0.000118
    21  H   -0.000050   0.010520  -0.000027  -0.000786  -0.007898  -0.000045
    22  C   -0.082159  -1.177134  -0.315633  -1.006622   0.806549  -0.222559
    23  O    0.008667   0.107609   0.005748   0.099624  -0.045894   0.008565
    24  N    0.252922   0.341300  -0.163505  -0.314130  -0.022163  -0.062286
    25  H    0.371623   0.025143   0.017863   0.051385  -0.007998   0.003720
    26  C    0.025143  13.550247  -0.736490   0.242347  -2.141374  -2.291915
    27  N    0.017863  -0.736490   7.558191   0.736298  -0.325090   0.788075
    28  C    0.051385   0.242347   0.736298  12.211823  -5.372668   0.023995
    29  C   -0.007998  -2.141374  -0.325090  -5.372668  15.035353  -2.264593
    30  C    0.003720  -2.291915   0.788075   0.023995  -2.264593   9.726373
    31  H   -0.000000  -0.009439  -0.000549  -0.096395   0.036938   0.427602
    32  H   -0.000000  -0.009730  -0.001004  -0.110669   0.044289   0.433346
    33  H    0.000000   0.022058  -0.003397  -0.027662   0.004139   0.357341
    34  O   -0.002286  -0.077204   0.051953   0.143900   0.096478  -0.234644
    35  H   -0.000109   0.153286  -0.009584  -0.001851   0.199894  -0.045790
    36  O   -0.000000   0.000003  -0.000000   0.000000  -0.000000   0.000000
    37  H    0.000000   0.000000  -0.000000   0.000000   0.000000   0.000000
              31         32         33         34         35         36
     1  C    0.000000  -0.000000   0.000000   0.000278   0.000083  -0.036010
     2  C    0.000000  -0.000000   0.000000   0.000044  -0.000006  -0.175727
     3  C    0.000000  -0.000000  -0.000000   0.000002   0.000001   0.214569
     4  C   -0.000000   0.000000  -0.000000  -0.000004  -0.000004  -0.038496
     5  C   -0.000000   0.000000  -0.000000  -0.000096  -0.000133   0.060990
     6  C   -0.000001   0.000000   0.000002   0.000641  -0.000035   0.012533
     7  H    0.000000   0.000000   0.000000   0.000000   0.000000  -0.005065
     8  H    0.000000   0.000000  -0.000000  -0.000000   0.000000  -0.013026
     9  H    0.000000  -0.000000   0.000000   0.000000  -0.000000  -0.000454
    10  C   -0.000043   0.000039  -0.000015   0.002766   0.000438   0.001406
    11  C   -0.000114  -0.000032   0.000187   0.019073  -0.002141   0.001008
    12  S    0.000000  -0.000000  -0.000000   0.000306   0.000028  -0.015913
    13  O    0.000000   0.000000  -0.000000  -0.000021  -0.000001   0.000041
    14  O   -0.000000  -0.000000   0.000000   0.000001   0.000000   0.000253
    15  N    0.000001  -0.000000  -0.000001  -0.000569   0.000112   0.000436
    16  C    0.000001  -0.000001   0.000001  -0.000229  -0.000041   0.000215
    17  H    0.000000   0.000000  -0.000000   0.000028   0.000000   0.000000
    18  H   -0.000000  -0.000000  -0.000000   0.000000  -0.000000  -0.000023
    19  H   -0.000000   0.000000  -0.000000  -0.000002   0.000000   0.000001
    20  O    0.000000  -0.000000  -0.000000   0.000004  -0.000067  -0.000006
    21  H    0.000000   0.000000  -0.000000   0.000000   0.000036   0.000000
    22  C    0.000389   0.001778  -0.002089   0.077231   0.033308  -0.000155
    23  O   -0.000003  -0.000007   0.000000  -0.001842  -0.008098   0.000000
    24  N    0.000037  -0.000010   0.000107   0.043942  -0.001503   0.000001
    25  H   -0.000000  -0.000000   0.000000  -0.002286  -0.000109  -0.000000
    26  C   -0.009439  -0.009730   0.022058  -0.077204   0.153286   0.000003
    27  N   -0.000549  -0.001004  -0.003397   0.051953  -0.009584  -0.000000
    28  C   -0.096395  -0.110669  -0.027662   0.143900  -0.001851   0.000000
    29  C    0.036938   0.044289   0.004139   0.096478   0.199894  -0.000000
    30  C    0.427602   0.433346   0.357341  -0.234644  -0.045790   0.000000
    31  H    0.503077  -0.025138  -0.022887  -0.004888   0.000029  -0.000000
    32  H   -0.025138   0.501637  -0.022687  -0.004715   0.000030   0.000000
    33  H   -0.022887  -0.022687   0.508937   0.008174   0.000114  -0.000000
    34  O   -0.004888  -0.004715   0.008174   7.764396   0.009248  -0.000000
    35  H    0.000029   0.000030   0.000114   0.009248   0.482731   0.000000
    36  O   -0.000000   0.000000  -0.000000  -0.000000   0.000000   8.302943
    37  H    0.000000   0.000000   0.000000   0.000000  -0.000000   0.210886
              37
     1  C    0.003217
     2  C    0.083163
     3  C   -0.001483
     4  C   -0.091689
     5  C    0.023255
     6  C   -0.008103
     7  H   -0.000006
     8  H    0.004348
     9  H   -0.000005
    10  C   -0.000081
    11  C    0.000161
    12  S    0.002084
    13  O    0.000006
    14  O    0.000004
    15  N   -0.000010
    16  C   -0.000012
    17  H   -0.000000
    18  H    0.000000
    19  H    0.000000
    20  O    0.000003
    21  H    0.000000
    22  C    0.000011
    23  O    0.000000
    24  N   -0.000000
    25  H    0.000000
    26  C    0.000000
    27  N   -0.000000
    28  C    0.000000
    29  C    0.000000
    30  C    0.000000
    31  H    0.000000
    32  H    0.000000
    33  H    0.000000
    34  O    0.000000
    35  H   -0.000000
    36  O    0.210886
    37  H    0.407114
 Mulliken charges:
               1
     1  C   -1.025815
     2  C    0.425545
     3  C   -0.233858
     4  C    0.390354
     5  C   -0.259601
     6  C    0.705804
     7  H    0.201398
     8  H    0.148025
     9  H    0.184230
    10  C   -0.155309
    11  C   -0.398259
    12  S    1.316658
    13  O   -0.406806
    14  O   -0.494492
    15  N   -0.643062
    16  C   -0.129748
    17  H    0.173289
    18  H    0.173135
    19  H    0.204760
    20  O   -0.525198
    21  H    0.448137
    22  C    0.589878
    23  O   -0.648038
    24  N   -0.291004
    25  H    0.344935
    26  C    0.207973
    27  N   -0.532253
    28  C   -0.338221
    29  C    0.458107
    30  C   -0.597287
    31  H    0.191382
    32  H    0.192876
    33  H    0.177677
    34  O    0.108036
    35  H    0.190022
    36  O   -0.520409
    37  H    0.367138
 Sum of Mulliken charges =  -0.00000
 Mulliken charges with hydrogens summed into heavy atoms:
               1
     1  C   -1.025815
     2  C    0.626943
     3  C   -0.233858
     4  C    0.538379
     5  C   -0.075371
     6  C    0.705804
    10  C   -0.155309
    11  C   -0.398259
    12  S    1.316658
    13  O   -0.406806
    14  O   -0.494492
    15  N   -0.643062
    16  C    0.421436
    20  O   -0.077061
    22  C    0.589878
    23  O   -0.648038
    24  N    0.053931
    26  C    0.207973
    27  N   -0.532253
    28  C   -0.338221
    29  C    0.648130
    30  C   -0.035351
    34  O    0.108036
    36  O   -0.153271
 Electronic spatial extent (au):  <R**2>=          10599.3567
 Charge=             -0.0000 electrons
 Dipole moment (field-independent basis, Debye):
    X=             -1.7788    Y=              5.6196    Z=              2.7110  Tot=              6.4880
 Quadrupole moment (field-independent basis, Debye-Ang):
   XX=           -108.6978   YY=           -153.5123   ZZ=           -148.6600
   XY=             -5.9190   XZ=             -1.0641   YZ=             -3.4860
 Traceless Quadrupole moment (field-independent basis, Debye-Ang):
   XX=             28.2589   YY=            -16.5556   ZZ=            -11.7033
   XY=             -5.9190   XZ=             -1.0641   YZ=             -3.4860
 Octapole moment (field-independent basis, Debye-Ang**2):
  XXX=             11.9777  YYY=             33.9812  ZZZ=             12.4667  XYY=            -26.7821
  XXY=            184.5453  XXZ=            -34.1976  XZZ=             12.5852  YZZ=             -4.4914
  YYZ=              5.5221  XYZ=             -1.3140
 Hexadecapole moment (field-independent basis, Debye-Ang**3):
 XXXX=          -9224.4142 YYYY=          -1836.6207 ZZZZ=           -498.6173 XXXY=           -132.8116
 XXXZ=             75.9200 YYYX=            -42.6907 YYYZ=              4.2515 ZZZX=             -7.3852
 ZZZY=            -23.6363 XXYY=          -2173.9207 XXZZ=          -2067.2599 YYZZ=           -388.9669
 XXYZ=              9.3273 YYXZ=            -13.2555 ZZXY=              3.5575
 N-N= 2.271152419940D+03 E-N=-8.182369977255D+03  KE= 1.541299339353D+03
 Calling FoFJK, ICntrl=      2127 FMM=F ISym2X=0 I1Cent= 0 IOpClX= 0 NMat=1 NMatS=1 NMatT=0.
 ***** Axes restored to original set *****
 -------------------------------------------------------------------
 Center     Atomic                   Forces (Hartrees/Bohr)
 Number     Number              X              Y              Z
 -------------------------------------------------------------------
      1        6          -0.005155442    0.004368928    0.001627530
      2        6          -0.003031130   -0.006169592    0.000770718
      3        6          -0.042712224   -0.001092323   -0.000173799
      4        6           0.002820060    0.002811188   -0.000258864
      5        6          -0.002574397   -0.003026944   -0.000653364
      6        6           0.004450334    0.000525471   -0.000071522
      7        1          -0.002170042    0.000492235   -0.000172633
      8        1          -0.000985860    0.000510798    0.000550176
      9        1          -0.000658371    0.000043747    0.000013866
     10        6          -0.002100342   -0.000452338    0.000071472
     11        6           0.001451975    0.000376455   -0.000155060
     12       16           0.001797275   -0.002544143    0.000045350
     13        8          -0.000773465    0.000630924    0.000513452
     14        8          -0.000211710    0.000901538   -0.000193997
     15        7          -0.001343670    0.000116057   -0.000335268
     16        6          -0.000190536   -0.000168335    0.000157291
     17        1          -0.000012460    0.000018226   -0.000099878
     18        1           0.000052357   -0.000010115    0.000013493
     19        1          -0.000022137   -0.000006348    0.000052128
     20        8           0.000046980    0.000387471    0.000032875
     21        1           0.000165251   -0.000043304    0.000067099
     22        6          -0.000974098   -0.000283949   -0.000145100
     23        8           0.000169234    0.000344317   -0.000042662
     24        7           0.000181729   -0.000129099    0.000049046
     25        1           0.000099023    0.000037626   -0.000025682
     26        6          -0.000112448   -0.000076383    0.000034073
     27        7          -0.000013723    0.000008676    0.000001565
     28        6          -0.000014222   -0.000043932    0.000005956
     29        6           0.000028055    0.000023776   -0.000005605
     30        6           0.000006688   -0.000005730   -0.000001460
     31        1           0.000004533   -0.000006201   -0.000001504
     32        1           0.000004782   -0.000005667   -0.000002630
     33        1           0.000003032   -0.000003475   -0.000000685
     34        8           0.000088858    0.000010312   -0.000015012
     35        1           0.000011627   -0.000031505    0.000002052
     36        8           0.052145048   -0.003003047   -0.001962800
     37        1          -0.000470566    0.005494685    0.000309385
 -------------------------------------------------------------------
 Cartesian Forces:  Max     0.052145048 RMS     0.006552393

 GradGradGradGradGradGradGradGradGradGradGradGradGradGradGradGradGradGrad
 Berny optimization.
 FormGI is forming the generalized inverse of G from B-inverse, IUseBI=4.
 Internal  Forces:  Max     0.051015341 RMS     0.003929039
 Search for a local minimum.
 Step number   1 out of a maximum of  202
 All quantities printed in internal units (Hartrees-Bohrs-Radians)
 Mixed Optimization -- RFO/linear search
 Second derivative matrix not updated -- first step.
 ITU=  0
     Eigenvalues ---    0.00717   0.01051   0.01281   0.01295   0.01300
     Eigenvalues ---    0.01520   0.01635   0.01699   0.01734   0.01735
     Eigenvalues ---    0.01834   0.01875   0.01977   0.02014   0.02032
     Eigenvalues ---    0.02046   0.02108   0.02141   0.02168   0.02179
     Eigenvalues ---    0.02185   0.02196   0.02207   0.02232   0.02329
     Eigenvalues ---    0.02423   0.02673   0.03638   0.07234   0.07464
     Eigenvalues ---    0.07492   0.07693   0.09604   0.11595   0.11656
     Eigenvalues ---    0.12510   0.15962   0.15999   0.16000   0.16000
     Eigenvalues ---    0.16000   0.16000   0.16000   0.16000   0.16000
     Eigenvalues ---    0.16000   0.16000   0.16000   0.16000   0.18339
     Eigenvalues ---    0.19861   0.22014   0.22440   0.23419   0.23719
     Eigenvalues ---    0.23818   0.24647   0.24977   0.24996   0.24999
     Eigenvalues ---    0.25000   0.25000   0.25000   0.25000   0.25000
     Eigenvalues ---    0.25000   0.27380   0.33675   0.34195   0.34196
     Eigenvalues ---    0.34323   0.34416   0.34520   0.34651   0.34751
     Eigenvalues ---    0.35130   0.35176   0.35251   0.35301   0.36156
     Eigenvalues ---    0.36182   0.36830   0.38477   0.40244   0.40989
     Eigenvalues ---    0.41364   0.42682   0.44915   0.45457   0.46057
     Eigenvalues ---    0.46467   0.46962   0.47706   0.47989   0.48678
     Eigenvalues ---    0.49219   0.50084   0.52315   0.53840   0.55473
     Eigenvalues ---    0.60502   0.60977   0.86519   0.94413   0.95688
 RFO step:  Lambda=-7.86716874D-03 EMin= 7.16842553D-03
 Linear search not attempted -- first point.
 Iteration  1 RMS(Cart)=  0.02052643 RMS(Int)=  0.00050652
 Iteration  2 RMS(Cart)=  0.00045047 RMS(Int)=  0.00007823
 Iteration  3 RMS(Cart)=  0.00000100 RMS(Int)=  0.00007823
 Iteration  4 RMS(Cart)=  0.00000000 RMS(Int)=  0.00007823
 Variable       Old X    -DE/DX   Delta X   Delta X   Delta X     New X
                                 (Linear)    (Quad)   (Total)
    R1        2.61961  -0.00241   0.00000  -0.00498  -0.00498   2.61463
    R2        2.65159   0.00061   0.00000   0.00173   0.00170   2.65330
    R3        3.36310   0.00043   0.00000   0.00171   0.00171   3.36481
    R4        2.63131  -0.00451   0.00000  -0.00960  -0.00958   2.62173
    R5        2.05464   0.00017   0.00000   0.00046   0.00046   2.05510
[...]
 0.00000008,0.00000011,-0.00000022,0.00000004,-0.00000139,0.00000034,0.
 00000030,-0.00001386,-0.00004943,0.00001167,-0.00001689,0.00003034,-0.
 00000496,0.00000131,-0.00000812,0.00000107,-0.00000023,0.00000363,-0.0
 0000131,0.00000105,0.00000625,-0.00000174,0.00001050,0.00001462,-0.000
 00083,0.00000212,0.00000123,0.00000271,0.00000060,-0.00000362,-0.00000
 218,-0.00000212,-0.00000014,-0.00000116,0.00000190,0.00000096,-0.00000
 089,0.00003091,0.00003959,-0.00000821,-0.00003536,-0.00000352,-0.00000
 016,0.00000812,-0.00039533,0.00003194,0.00017318,0.00021824,-0.0000216
 5,-0.00025144,0.00045709,-0.00002003,0.00010656,-0.00004006,-0.0000006
 1,0.00070709,-0.00072006,-0.00000366,-0.00050913,-0.00124293,0.0001626
 0,0.00539159,-0.03208077,0.00176036,0.00107029,0.00096707,-0.00011932,
 -0.04735689,0.01524204,-0.00087401,-0.00066447,0.01666744,0.00105536,-
 0.00095341,0.01385492,-0.00285246,0.04985264,0.00000225,0.00000532,-0.
 00000707,-0.00001737,0.00001289,0.00000389,0.00003666,0.00000208,-0.00
 000040,-0.00000838,-0.00000994,-0.00000096,0.00000570,-0.00000734,-0.0
 0000052,-0.00001017,0.00000336,0.00000152,0.00000077,-0.00000046,0.000
 00043,-0.00000329,0.00000098,0.00000027,0.00000220,-0.00000090,-0.0000
 0073,0.00003791,-0.00011792,0.00002154,-0.00011122,0.00006348,-0.00001
 169,0.00005106,0.00002584,0.00003023,-0.00001337,-0.00000204,-0.000010
 98,-0.00001572,-0.00001026,-0.00000225,-0.00003557,-0.00000171,-0.0000
 0441,0.00000821,-0.00000123,-0.00000649,0.00000187,-0.00000323,-0.0000
 0736,-0.00000543,0.00000249,-0.00000121,0.00000304,-0.00000003,-0.0000
 0021,-0.00000739,0.00008372,-0.00001747,0.00001866,-0.00002943,0.00000
 569,0.00020858,-0.00040058,0.00002887,-0.00001046,0.00022719,-0.000018
 17,-0.00039296,0.00036588,-0.00001345,0.00006804,0.00000686,-0.0000006
 4,0.00037477,-0.00057076,0.00000340,0.00030948,0.00012570,0.00003671,0
 .00390546,-0.01114034,0.00037976,0.00052482,0.00109931,-0.00010944,0.0
 1092666,-0.32197401,0.01795054,-0.00051544,-0.00496276,-0.00104270,-0.
 00047158,-0.00817552,0.00215137,-0.01122985,0.34513462,-0.00000118,-0.
 00000056,-0.00000242,0.00000057,-0.00000114,-0.00000056,-0.00000199,0.
 00000013,0.00000114,0.00000050,0.00000035,-0.00000101,-0.00000037,0.00
 000086,-0.00000103,0.00000139,-0.00000086,-0.00000151,-0.00000012,-0.0
 0000002,0.00000059,0.00000034,-0.00000013,0.00000090,0.00000004,-0.000
 00016,0.00000193,-0.00000077,0.00000308,0.00000421,0.00000487,-0.00000
 465,0.00000374,-0.00000377,0.00000215,0.00002637,0.00000581,0.00000062
 ,-0.00001542,0.00000128,0.00000111,-0.00000711,-0.00000109,-0.00000091
 ,-0.00000965,0.00000074,-0.00000070,0.00000905,-0.00000173,0.00000156,
 0.00000103,0.00000239,-0.00000013,-0.00000069,0.00000021,0.00000048,-0
 .00000067,0.00000114,-0.00000239,-0.00001115,-0.00000066,0.00000243,0.
 00001760,-0.00001147,0.00004331,0.00001041,-0.00000948,-0.00002712,-0.
 00004913,0.00003362,-0.00005249,-0.00007317,-0.00001166,0.00000225,0.0
 0001298,-0.00006913,0.00004963,-0.00037369,0.00003548,0.00011069,0.000
 86221,-0.00061018,0.00219167,-0.00274402,-0.00011066,-0.00015261,-0.00
 026070,-0.00059256,0.01774478,-0.04503990,0.00076617,0.02482325,-0.000
 31915,-0.00047338,-0.02532092,0.00308135,0.00036784,-0.01957190,0.0438
 6641,0.00016309,0.00021618,-0.00022489,-0.00063273,0.00032330,0.000131
 32,0.00119522,0.00013321,-0.00001704,-0.00026882,-0.00041179,-0.000037
 07,0.00017932,-0.00025867,0.00000764,-0.00035089,0.00005493,0.00004689
 ,-0.00001331,0.00000474,0.00000761,-0.00009685,0.00003025,-0.00000060,
 0.00010621,-0.00004096,-0.00004022,0.00146714,-0.00378310,0.00068474,-
 0.00415125,0.00299202,-0.00057813,0.00093411,0.00197945,0.00111916,-0.
 00007109,-0.00047045,-0.00050544,-0.00033908,-0.00092251,0.00002287,-0
 .00076402,-0.00061523,-0.00002622,0.00005696,-0.00001860,-0.00040994,0
 .00000933,0.00012524,-0.00018892,-0.00007870,0.00002179,0.00001962,-0.
 00007906,-0.00006661,0.00003989,-0.00040884,0.00229071,-0.00046796,0.0
 0072477,-0.00066931,0.00009429,0.00608492,-0.01622736,0.00130585,0.001
 16003,0.00632920,-0.00038403,-0.02127464,0.01553063,0.00052746,0.00061
 280,0.00155764,-0.00026187,-0.08258407,0.02407297,0.00231298,-0.203667
 27,0.03967015,0.00363358,-0.10730387,-0.00803345,0.00268110,-0.0176107
 0,0.01104793,0.00040379,0.00125043,-0.04486428,0.00305810,0.00305843,0
 .00157917,-0.00025280,0.00295540,0.00152830,-0.00020027,-0.00719458,-0
 .00311785,0.00060898,0.43268790,-0.00000478,-0.00000698,-0.00002158,-0
 .00003287,0.00004745,0.00001673,0.00008147,-0.00000599,0.00000127,-0.0
 0002080,-0.00000972,-0.00001320,0.00000712,-0.00001826,0.00000203,0.00
 006066,0.00003948,0.00006600,0.00000602,-0.00000408,0.00000205,-0.0000
 1061,0.00000173,0.00000118,-0.00000728,0.00000197,-0.00000068,-0.00001
 076,-0.00094722,0.00012289,-0.00041975,0.00022178,-0.00015412,0.000184
 87,-0.00012589,0.00001789,-0.00006322,0.00007329,-0.00001266,-0.000034
 57,0.00011087,-0.00002404,0.00006430,0.00027184,0.00000945,0.00004501,
 0.00001663,0.00003210,0.00000262,-0.00008064,-0.00004899,-0.00005001,0
 .00000788,-0.00002277,0.00005301,0.00001632,-0.00001553,0.00043337,0.0
 0080294,-0.00014349,-0.00045327,-0.00000706,-0.00002679,0.00148323,-0.
 00860413,0.00097018,0.00290380,0.00539006,-0.00055138,-0.00683343,0.00
 384595,0.00062497,0.00180158,-0.00106334,-0.00006151,0.02851273,-0.047
 09199,0.00231942,-0.08770808,-0.06788862,0.00477412,0.02549587,-0.2827
 1131,0.01451666,0.06430927,-0.07022321,0.00296135,-0.00788252,-0.02324
 853,0.00186192,0.00215642,0.00135670,0.00024310,0.00208216,0.00124094,
 -0.00057500,-0.00216156,0.00038404,0.00013746,-0.02824207,0.48701610,-
 0.00001210,-0.00000358,0.00002478,0.00005465,-0.00002530,-0.00002313,-
 0.00008531,-0.00000142,-0.00000089,0.00000928,0.00003602,-0.00000089,-
 0.00002463,0.00000252,-0.00000415,-0.00002440,0.00006129,0.00013998,0.
 00000129,-0.00000027,-0.00000198,0.00000437,-0.00000215,-0.00000275,-0
 .00000455,0.00000330,0.00000686,-0.00014490,0.00025402,-0.00026235,0.0
 0028406,-0.00019774,-0.00086357,0.00000464,-0.00013746,-0.00016652,-0.
 00004438,0.00003716,0.00009347,0.00001003,0.00004828,0.00003070,0.0000
 4190,0.00005105,0.00013908,-0.00001757,-0.00000676,-0.00003481,-0.0000
 0627,0.00001922,0.00002625,0.00001194,-0.00000563,0.00001691,-0.000010
 28,-0.00000545,0.00000194,-0.00004058,-0.00025013,0.00004812,0.0000458
 0,0.00001095,-0.00005741,-0.00042458,0.00157121,0.00330588,-0.00023900
 ,-0.00073375,-0.00058302,0.00226389,-0.00049914,0.00897967,-0.00007343
 ,0.00003871,-0.00166121,0.00147015,0.00275385,0.00531208,0.01311311,-0
 .00106608,-0.05898601,0.00007249,0.01556176,-0.06816490,-0.00319628,0.
 00559779,0.01469587,0.00046196,0.00369504,-0.00135505,-0.00000293,0.00
 013674,0.00036122,-0.00052083,-0.00040341,0.00046003,0.00052287,0.0001
 6106,0.00064582,-0.01389523,-0.02740919,0.08924821,-0.00002467,-0.0000
 4547,0.00002020,0.00008600,-0.00003842,-0.00001047,-0.00016865,-0.0000
 2241,0.00000542,0.00003753,0.00006278,0.00000567,-0.00003466,0.0000332
 4,-0.00001038,0.00007726,0.00003092,0.00000287,0.00000275,-0.00000075,
 -0.00000100,0.00001289,-0.00000476,0.00000035,-0.00002093,0.00000838,0
 .00000637,-0.00035445,0.00007975,-0.00001578,0.00033209,0.00019694,-0.
 00000364,-0.00012858,-0.00024173,-0.00017181,0.00000985,0.00007138,0.0
 0007182,0.00006610,0.00014794,-0.00000052,0.00022809,0.00022070,-0.000
 00361,0.00001926,0.00002288,0.00008176,-0.00000401,-0.00002648,0.00000
 834,-0.00000164,-0.00000955,-0.00001010,0.00001174,0.00001457,-0.00001
 208,0.00039666,-0.00000645,0.00001605,-0.00055747,0.00022275,-0.000041
 61,-0.00087289,-0.00519771,0.00048217,-0.00173128,0.00417622,-0.000236
 72,-0.00097728,0.00278847,-0.00022676,-0.00008572,-0.00009903,-0.00000
 921,0.01191488,-0.01726356,0.00072321,-0.00315137,-0.00566899,0.000722
 38,0.00276040,0.02223772,-0.00197492,-0.06991332,0.07997016,-0.0041252
 4,0.00104593,-0.00006302,-0.00015823,0.00012193,-0.00010254,0.00001880
 ,0.00014693,-0.00011955,-0.00000299,-0.00036183,-0.00048501,0.00006691
 ,-0.00458441,0.00434049,0.00030830,0.06554158,-0.00000174,-0.00000542,
 0.00000383,0.00001150,-0.00000967,-0.00000207,-0.00002208,-0.00000069,
 -0.00000009,0.00000621,0.00000615,0.00000166,-0.00000362,0.00001085,0.
 00000062,0.00000631,0.00000148,-0.00000815,-0.00000028,0.00000019,-0.0
 0000020,0.00000298,-0.00000025,0.00000005,-0.00000064,0.00000210,0.000
 00124,-0.00006472,0.00006829,-0.00001000,0.00012834,0.00004864,0.00000
 631,-0.00003167,-0.00002285,-0.00000264,0.00001210,0.00000685,-0.00000
 283,0.00001339,0.00001965,-0.00000329,0.00003075,0.00002453,0.00000927
 ,-0.00000763,0.00000141,0.00000264,-0.00000016,-0.00000731,0.00000200,
 0.00000152,-0.00000042,-0.00000076,0.00000337,0.00000136,-0.00000041,0
 .00018023,-0.00011718,0.00002192,-0.00011910,0.00020142,-0.00002434,-0
 .00083632,-0.00086057,0.00013925,0.00368964,-0.00092619,-0.00017222,-0
 .00005683,0.00044192,-0.00014350,0.00000764,-0.00010971,-0.00000171,0.
 00999546,-0.00966348,0.00016994,-0.00060418,-0.00239349,0.00054408,-0.
 00340240,-0.00033869,-0.00007764,0.07732388,-0.34651484,0.02100400,0.0
 0002030,0.00024735,-0.00026090,-0.00003852,0.00001446,-0.00000586,0.00
 003291,-0.00001357,0.00003238,0.00042706,-0.00012772,0.00002056,-0.001
 45633,0.00120601,0.00068647,-0.08527001,0.35880431,-0.00000609,-0.0000
 0612,-0.00001750,-0.00000923,0.00000167,0.00000052,0.00000926,-0.00000
 079,0.00000875,-0.00000040,-0.00000282,-0.00000926,0.00000076,0.000002
 62,0.00000227,0.00001651,-0.00001029,-0.00003475,0.,-0.00000015,0.0000
 0252,0.00000009,-0.00000016,0.00000336,0.00000178,-0.00000161,0.000008
 57,0.00001684,-0.00004331,0.00002062,-0.00000483,0.00002117,0.00032983
 ,-0.00000586,0.00003912,0.00015551,0.00003423,0.00000108,-0.00008825,0
 .00000307,-0.00000478,-0.00003916,-0.00002643,-0.00000665,-0.00003719,
 0.00001428,-0.00001097,0.00005126,-0.00000594,0.00001254,-0.00000013,0
 .00000931,0.00000240,-0.00000656,-0.00000013,0.00000135,-0.00000461,-0
 .00001253,0.00003683,-0.00008489,0.00000995,-0.00001489,0.00016699,0.0
 0009880,0.00031089,0.00041605,-0.00020498,-0.00014597,-0.00121691,-0.0
 0002184,-0.00027467,-0.00151877,-0.00001335,0.00001887,-0.00012421,-0.
 00129152,0.00122101,-0.00256421,0.00036132,0.00072703,0.00482164,0.000
 02663,-0.00137349,-0.00295377,-0.00404248,0.02118095,-0.02644944,-0.00
 020337,-0.00022413,-0.00310302,-0.00045092,0.00019085,0.00018229,0.000
 46354,-0.00016828,0.00016494,-0.00000285,0.00005226,0.00036545,0.00076
 686,0.00040023,0.00862938,0.00447829,-0.02192914,0.02292402,0.00661569
 ,0.00552723,0.00049032,-0.05952287,0.00260983,0.00364183,-0.32583623,-
 0.08835062,0.00572160,-0.03381422,-0.01619595,0.00041366,0.00605021,-0
 .00067932,0.00030154,-0.01011767,-0.00330102,0.00013433,0.00146016,-0.
 00123573,-0.00030419,0.00369932,0.00039674,-0.00032947,-0.00087209,-0.
 00005608,-0.00001032,0.00879942,0.00048909,-0.00022172,-0.00695723,-0.
 00042280,0.00009159,0.00023008,-0.00471960,-0.00184979,-0.00039874,0.0
 0096096,0.00171411,0.00027970,0.00246379,-0.00034785,-0.00040773,0.001
 19973,-0.00087778,0.00039049,-0.00002041,0.00087567,-0.00005330,-0.000
 04920,0.00008856,0.00008548,-0.00009305,-0.00005504,0.00008049,0.00012
 192,-0.00013994,-0.00204984,-0.00107309,-0.00010528,0.00058393,0.00034
 482,-0.00014769,0.00699403,0.00067883,0.00049228,-0.00224132,-0.001527
 47,0.00018779,-0.00341679,0.00122577,-0.00010138,0.00020011,-0.0003031
 5,0.00005349,0.00236997,0.00054076,-0.00022456,0.00020074,0.00010086,-
 0.00003686,0.00054292,0.00002054,-0.00004153,-0.00071723,-0.00005198,0
 .00003527,-0.00004529,0.00004578,0.00000285,-0.00006059,-0.00001230,-0
 .00003019,-0.00005722,-0.00000829,0.00003575,0.00000491,-0.00004150,0.
 00000224,-0.00137550,-0.00010140,0.00009977,0.00019112,0.00002616,-0.0
 0001040,0.60475668,-0.00196696,-0.00894087,-0.00176471,0.03812143,0.01
 453780,-0.00094493,-0.03687406,-0.12395369,-0.00592077,-0.05225913,-0.
 01076669,0.00055098,0.00893521,-0.00739042,-0.00194738,-0.00305132,0.0
 0582449,0.00086428,-0.00114987,0.00132174,0.00052428,-0.00042620,0.002
 83148,0.00064164,-0.00154528,-0.00009597,0.00006173,0.00135760,0.00013
 825,0.00024980,-0.00154525,-0.00028474,-0.00002724,-0.00026342,-0.0000
 0279,-0.00017910,0.00029550,0.00006155,-0.00021653,0.00022984,0.000224
 37,-0.00005770,0.00084995,0.00012036,0.00041142,0.00012926,0.00008876,
 -0.00001894,-0.00000859,-0.00001167,0.00008784,-0.00004026,-0.00003416
 ,0.00004508,-0.00000743,0.00002638,-0.00003552,-0.00033656,0.00023462,
 -0.00005533,0.00014836,0.00006319,0.00000494,0.00122447,0.00000878,-0.
 00004943,-0.00035485,-0.00011248,0.00004919,-0.00055279,0.00028975,-0.
 00001621,-0.00006424,-0.00006941,0.00003229,0.00032694,0.00008969,-0.0
 0003951,0.00003627,0.00001856,-0.00000669,0.00008184,0.00000424,-0.000
 00660,-0.00009681,-0.00000858,0.00000540,-0.00000563,0.00000608,0.0000
 0066,-0.00000827,-0.00000212,-0.00000457,-0.00000787,-0.00000152,0.000
 00533,0.00000099,-0.00000490,0.00000019,-0.00021385,-0.00000441,0.0000
 1427,0.00003056,0.00000277,-0.00000189,-0.14875635,0.49419788,-0.00045
 951,-0.00176943,0.00448797,0.00762450,0.00046785,0.00612995,0.01006123
 ,-0.00338615,-0.04308660,-0.00330198,-0.00142720,0.00948400,0.00107670
 ,-0.00146148,0.00763789,0.00011431,0.00102173,-0.00128245,-0.00036428,
 0.00055768,-0.00309241,-0.00039092,0.00062656,-0.00342981,-0.00013162,
 0.00001559,-0.00041947,-0.00047932,0.00016346,-0.00078575,0.00017270,0
 .00001619,0.00007083,0.00005571,0.00027252,-0.00010584,0.00001712,0.00
 000958,0.00013426,-0.00001098,-0.00014909,0.00016994,0.00007361,-0.000
 29166,0.00009264,0.00012533,-0.00003243,-0.00017251,-0.00000199,0.0000
 2458,0.00002531,-0.00002574,0.00005068,-0.00000588,0.00000850,-0.00001
 051,-0.00000060,0.00017756,0.00002416,0.00005086,-0.00006945,0.0000025
 2,-0.00004059,-0.00021861,0.00006425,0.00013158,0.00008217,0.00001320,
 -0.00000698,0.00010038,-0.00005951,0.00000254,0.00000132,0.00001201,-0
 .00002157,-0.00006895,-0.00001136,0.00000414,-0.00000529,-0.00000406,0
 .00000726,-0.00001695,0.00000028,-0.00000337,0.00002043,0.00000125,0.0
 0000675,0.00000082,-0.00000113,-0.00000051,0.00000261,-0.00000046,0.00
 000106,0.00000080,0.00000119,-0.00000111,-0.00000035,0.00000092,-0.000
 00163,0.00004005,0.00000054,0.00000193,-0.00000693,-0.00000096,-0.0000
 0546,-0.04182428,0.05109414,0.03432624,-0.00030559,0.00167343,0.000495
 76,-0.00494724,-0.00431580,-0.00017487,-0.03116509,0.03722939,0.004889
 10,0.00462185,0.00185492,-0.00005481,-0.00127607,0.00064972,0.00006636
 ,0.00128441,-0.00046766,-0.00014686,0.00012550,-0.00008140,-0.00006172
 ,-0.00021422,-0.00167505,-0.00014585,0.00023632,0.00004707,0.00001291,
 -0.00103309,-0.00005899,-0.00003012,0.00091712,0.00003432,0.00002184,-
 0.00052346,0.00037349,0.00014320,0.00013691,-0.00013584,-0.00013433,0.
 00007028,-0.00030176,0.00002037,-0.00000077,-0.00008240,0.00001599,-0.
 00007508,0.00001990,-0.00007433,0.00002021,0.00001005,-0.00002453,-0.0
 0000769,0.00000226,-0.00002003,-0.00001654,-0.00001398,0.00000868,0.00
 032723,0.00006227,0.00001355,-0.00014463,-0.00004986,0.00000974,-0.000
 94224,-0.00004146,-0.00000917,0.00032896,0.00016206,-0.00003064,0.0004
 9814,-0.00018310,0.00000571,-0.00003090,0.00003810,-0.00000733,-0.0003
 5944,-0.00007904,0.00002976,-0.00002618,-0.00001728,0.00000447,-0.0000
 8697,0.00000074,0.00000616,0.00011153,0.00000956,-0.00000608,0.0000076
 4,-0.00000721,-0.00000046,0.00000923,0.00000188,0.00000516,0.00000867,
 0.00000122,-0.00000598,-0.00000119,0.00000644,-0.00000033,0.00020365,0
 .00001297,-0.00001325,-0.00002982,-0.00000352,0.00000165,-0.19559162,0
 .19776675,0.02762129,0.22787019,0.00093033,0.00042103,-0.00010318,-0.0
 0380927,0.00133123,0.00006701,-0.00979978,0.00785932,0.00142296,-0.005
 88505,0.00223777,0.00061984,0.00080909,-0.00086569,-0.00004559,-0.0009
 7291,-0.00027957,-0.00002345,-0.00024521,0.00020304,0.00010645,0.00094
 175,-0.00135846,-0.00023159,-0.00013697,-0.00003580,0.00000556,0.00087
 887,0.00004255,-0.00000972,-0.00053691,-0.00000696,0.00002178,-0.00032
 315,0.00012640,-0.00007206,0.00007484,-0.00004728,0.00004151,0.0000383
 3,-0.00001474,0.00000893,0.00009239,0.00002605,-0.00004460,0.00004120,
 0.00001998,0.00002063,-0.00000122,-0.00000355,0.00001327,0.00000032,-0
 .00000031,-0.00000807,0.00000767,0.00000489,-0.00001449,-0.00011569,-0
 .00016397,-0.00001330,-0.00001104,0.00002883,-0.00001987,0.00048564,0.
 00009606,0.00006212,-0.00013177,-0.00014923,0.00001256,-0.00019097,0.0
 0006883,-0.00001134,0.00000087,-0.00001862,0.00000536,0.00012721,0.000
 03537,-0.00001863,0.00001285,0.00000038,-0.00000181,0.00002702,0.00000
 693,-0.00000095,-0.00003804,-0.00000267,0.00000112,-0.00000237,0.00000
 244,-0.00000032,-0.00000330,-0.00000042,-0.00000121,-0.00000320,-0.000
 00021,0.00000152,0.00000004,-0.00000267,0.00000012,-0.00007540,-0.0000
 1064,0.00000676,0.00000957,0.00000232,-0.00000078,0.25024647,-0.368406
 31,-0.04583547,-0.23244220,0.35885368,0.00015699,-0.00023539,0.0015082
 5,0.00010888,0.00008228,0.00284226,0.00069090,-0.00078521,-0.00302767,
 -0.00082058,0.00026793,-0.00085278,0.00007447,-0.00004588,-0.00082609,
 -0.00011263,0.00003010,0.00005870,-0.00007214,0.00011230,-0.00058155,0
 .00012613,-0.00011457,0.00047334,-0.00001759,-0.00001458,0.00006480,0.
 00007705,-0.00002126,-0.00006072,-0.00014766,-0.00000534,0.00000309,0.
 00001955,0.00003383,0.00001381,0.00007372,0.00000589,-0.00011488,-0.00
 000867,0.00006232,-0.00002322,-0.00009746,-0.00009289,-0.00013899,0.00
 002730,-0.00001413,0.00008106,0.00000268,0.00000600,-0.00000191,0.0000
 1525,-0.00000476,-0.00002003,0.00000245,0.00000674,-0.00000012,0.00000
 079,0.00001206,-0.00003926,0.00000654,0.00001075,0.00003333,0.00011629
 ,0.00002445,0.00010131,-0.00003429,-0.00002981,-0.00003335,-0.00005746
 ,0.00001460,-0.00001880,0.00000759,-0.00000322,0.00000545,0.00003656,0
 .00000897,0.00000475,0.00000340,0.00000107,-0.00000723,0.00000800,0.00
 000023,0.00000031,-0.00000980,-0.00000058,-0.00000667,-0.00000025,0.00
 000051,0.00000072,-0.00000156,0.00000054,-0.00000052,-0.00000012,-0.00
 000092,0.00000050,0.00000017,-0.00000041,0.00000143,-0.00002215,-0.000
 00062,0.00000043,0.00000308,0.00000050,0.00000412,0.03227560,-0.043350
 42,-0.01030257,-0.03243102,0.04403892,0.01085867\\-0.00004463,-0.00001
 216,-0.00000058,0.00003120,0.00001822,0.00000087,0.00000236,0.00000707
 ,-0.00000631,0.00000383,-0.00002376,-0.00000086,-0.00001644,-0.0000063
 2,0.00000182,0.00003763,0.00001192,0.00000053,-0.00000993,-0.00001088,
 -0.00000463,-0.00001272,-0.00000403,0.00000132,-0.00000479,-0.00000320
 ,0.00000012,-0.00002664,-0.00001817,0.00001090,0.00001159,-0.00000308,
 -0.00001016,0.00002264,-0.00001857,0.00000704,-0.00000782,0.00000103,-
 0.00001316,-0.00000475,0.00000141,-0.00000705,0.00000081,0.00000867,-0
 .00000226,0.00000349,-0.00000095,0.00000474,-0.00000071,0.00000006,0.0
 0000087,-0.00000039,-0.00000298,0.00000043,0.00000246,-0.00000027,-0.0
 0000119,0.00002189,0.00000573,0.00000869,-0.00000234,0.00000626,-0.000
 01664,-0.00000729,0.00001083,0.00001989,-0.00002336,0.00000495,0.00000
 379,0.00000966,-0.00001049,-0.00000419,0.00000184,0.00000218,-0.000004
 00,-0.00000736,0.00000412,-0.00000189,0.00000198,0.00000395,-0.0000000
 8,-0.00000123,0.00000634,-0.00000069,0.00000417,0.00000572,0.00000290,
 -0.00000040,0.00000548,0.00000141,-0.00000031,0.00000704,0.00000164,0.
 00000015,0.00000665,0.00000164,-0.00000145,0.00000628,0.00000145,0.000
 00438,0.00000292,-0.00000037,-0.00000035,0.00000169,0.00000144,-0.0000
 0373,-0.00001955,0.00000932,0.00001656,0.00000586,-0.00000675\\\@
 The archive entry for this job was punched.


 DEMOCRATS BUY MOST OF THE BOOKS THAT HAVE BEEN
 BANNED; REPUBLICANS FORM CENSORSHIP COMMITTEES AND
 READ THEM AS A GROUP.
 Job cpu time:       0 days 17 hours 35 minutes 55.4 seconds.
 Elapsed time:       0 days  1 hours  6 minutes  5.5 seconds.
 File lengths (MBytes):  RWF=   1064 Int=      0 D2E=      0 Chk=     23 Scr=      1
 Normal termination of Gaussian 16 at Tue May 16 08:27:46 2023.
