 Entering Gaussian System, Link 0=/home/user/SOFTWARE/gauss/g16/g16
 Input=/home/user/WorkIMPORTANT/Joydeep/I-M new/I-M2.gjf
 Output=/home/user/WorkIMPORTANT/Joydeep/I-M new/I-M2.log
 Initial command:
 /home/user/SOFTWARE/gauss/g16/l1.exe "/home/user/SOFTWARE/gauss/scratch/Gau-78302.inp" -scrdir="/home/user/SOFTWARE/gauss/scratch/"
 Entering Link 1 = /home/user/SOFTWARE/gauss/g16/l1.exe PID=     78304.
  
 Copyright (c) 1988-2019, Gaussian, Inc.  All Rights Reserved.
  
 This is part of the Gaussian(R) 16 program.  It is based on
 the Gaussian(R) 09 system (copyright 2009, Gaussian, Inc.),
 the Gaussian(R) 03 system (copyright 2003, Gaussian, Inc.),
 the Gaussian(R) 98 system (copyright 1998, Gaussian, Inc.),
 the Gaussian(R) 94 system (copyright 1995, Gaussian, Inc.),
 the Gaussian 92(TM) system (copyright 1992, Gaussian, Inc.),
 the Gaussian 90(TM) system (copyright 1990, Gaussian, Inc.),
 the Gaussian 88(TM) system (copyright 1988, Gaussian, Inc.),
 the Gaussian 86(TM) system (copyright 1986, Carnegie Mellon
 University), and the Gaussian 82(TM) system (copyright 1983,
 Carnegie Mellon University). Gaussian is a federally registered
 trademark of Gaussian, Inc.
  
 This software contains proprietary and confidential information,
 including trade secrets, belonging to Gaussian, Inc.
  
 This software is provided under written license and may be
 used, copied, transmitted, or stored only in accord with that
 written license.
  
 The following legend is applicable only to US Government
 contracts under FAR:
  
                    RESTRICTED RIGHTS LEGEND
  
 Use, reproduction and disclosure by the US Government is
 subject to restrictions as set forth in subparagraphs (a)
 and (c) of the Commercial Computer Software - Restricted
 Rights clause in FAR 52.227-19.
  
 Gaussian, Inc.
 340 Quinnipiac St., Bldg. 40, Wallingford CT 06492
  
  
 ---------------------------------------------------------------
 Warning -- This program may not be used in any manner that
 competes with the business of Gaussian, Inc. or will provide
 assistance to any competitor of Gaussian, Inc.  The licensee
 of this program is prohibited from giving any competitor of
 Gaussian, Inc. access to this program.  By using this program,
 the user acknowledges that Gaussian, Inc. is engaged in the
 business of creating and licensing software in the field of
 computational chemistry and represents and warrants to the
 licensee that it is not a competitor of Gaussian, Inc. and that
 it will not use this program in any manner prohibited above.
 ---------------------------------------------------------------
  

 Cite this work as:
 Gaussian 16, Revision C.01,
 M. J. Frisch, G. W. Trucks, H. B. Schlegel, G. E. Scuseria, 
 M. A. Robb, J. R. Cheeseman, G. Scalmani, V. Barone, 
 G. A. Petersson, H. Nakatsuji, X. Li, M. Caricato, A. V. Marenich, 
 J. Bloino, B. G. Janesko, R. Gomperts, B. Mennucci, H. P. Hratchian, 
 J. V. Ortiz, A. F. Izmaylov, J. L. Sonnenberg, D. Williams-Young, 
 F. Ding, F. Lipparini, F. Egidi, J. Goings, B. Peng, A. Petrone, 
 T. Henderson, D. Ranasinghe, V. G. Zakrzewski, J. Gao, N. Rega, 
 G. Zheng, W. Liang, M. Hada, M. Ehara, K. Toyota, R. Fukuda, 
 J. Hasegawa, M. Ishida, T. Nakajima, Y. Honda, O. Kitao, H. Nakai, 
 T. Vreven, K. Throssell, J. A. Montgomery, Jr., J. E. Peralta, 
 F. Ogliaro, M. J. Bearpark, J. J. Heyd, E. N. Brothers, K. N. Kudin, 
 V. N. Staroverov, T. A. Keith, R. Kobayashi, J. Normand, 
 K. Raghavachari, A. P. Rendell, J. C. Burant, S. S. Iyengar, 
 J. Tomasi, M. Cossi, J. M. Millam, M. Klene, C. Adamo, R. Cammi, 
 J. W. Ochterski, R. L. Martin, K. Morokuma, O. Farkas, 
 J. B. Foresman, and D. J. Fox, Gaussian, Inc., Wallingford CT, 2019.
 
 ******************************************
 Gaussian 16:  ES64L-G16RevC.01  3-Jul-2019
                16-May-2023 
 ******************************************
 %mem=64GB
 %nprocshared=16
 Will use up to   16 processors via shared memory.
 --------------------------
 # opt freq 6-31+g(d,p) m06
 --------------------------
 1/18=20,19=15,26=3,38=1/1,3;
 2/9=110,12=2,17=6,18=5,40=1/2;
 3/5=1,6=6,7=111,11=2,25=1,30=1,71=1,74=-54/1,2,3;
 4//1;
 5/5=2,38=5/2;
 6/7=2,8=2,9=2,10=2,28=1/1;
 7//1,2,3,16;
 1/18=20,19=15,26=3/3(2);
 2/9=110/2;
 99//99;
 2/9=110/2;
 3/5=1,6=6,7=111,11=2,25=1,30=1,71=1,74=-54/1,2,3;
 4/5=5,16=3,69=1/1;
 5/5=2,38=5/2;
 7//1,2,3,16;
 1/18=20,19=15,26=3/3(-5);
 2/9=110/2;
 6/7=2,8=2,9=2,10=2,19=2,28=1/1;
 99/9=1/99;
 ----
 I-M2
 ----
 Symbolic Z-matrix:
 Charge =  0 Multiplicity = 1
 C                    -3.09801  -0.2755   -0.14686 
 C                    -4.44579  -0.59603  -0.09796 
 C                    -5.3742    0.42726   0.07468 
 C                    -4.94476   1.74787   0.19028 
 C                    -3.59025   2.05859   0.15176 
 C                    -2.64274   1.04434  -0.0068 
 H                    -4.75485  -1.63404  -0.19369 
 H                    -6.43455   0.19261   0.11528 
 H                    -5.67349   2.54416   0.31746 
 C                    -1.20823   1.34956  -0.01668 
 C                    -0.25703   0.38307   0.18444 
 S                    -1.88616  -1.53954  -0.46446 
 O                    -1.46278  -1.44817  -1.84885 
 O                    -2.35009  -2.79288   0.1069 
 N                    -0.6161   -0.96912   0.48965 
 C                    -0.72589  -1.27093   1.92793 
 H                     0.2276   -1.00801   2.39609 
 H                    -1.5283   -0.69087   2.40732 
 H                    -0.90901  -2.33838   2.0628 
 O                    -0.91095   2.61952  -0.25469 
 H                     0.07946   2.69914  -0.21389 
 C                     1.16209   0.71321   0.0756 
 O                     1.55313   1.88488  -0.04772 
 N                     2.01507  -0.34907   0.12246 
 H                     1.60057  -1.27712   0.12621 
 C                     3.39782  -0.28399   0.04988 
 N                     4.06289  -1.41808   0.10304 
 C                     5.49005   0.28663  -0.08723 
 C                     4.24961   0.84527  -0.06991 
 C                     6.8542    0.8464   -0.19439 
 H                     7.45606   0.57681   0.68026 
 H                     7.36595   0.4578   -1.08152 
 H                     6.80912   1.93566  -0.26604 
 O                     5.39405  -1.05029   0.0137 
 H                     3.96834   1.88445  -0.13709 
 O                    -3.14158   3.41033   0.27975 
 H                    -2.18335   3.43623   0.22756 
 

 GradGradGradGradGradGradGradGradGradGradGradGradGradGradGradGradGradGrad
 Berny optimization.
 Initialization pass.
                           ----------------------------
                           !    Initial Parameters    !
                           ! (Angstroms and Degrees)  !
 --------------------------                            --------------------------
 ! Name  Definition              Value          Derivative Info.                !
 --------------------------------------------------------------------------------
 ! R1    R(1,2)                  1.3862         estimate D2E/DX2                !
 ! R2    R(1,6)                  1.4032         estimate D2E/DX2                !
 ! R3    R(1,12)                 1.7797         estimate D2E/DX2                !
 ! R4    R(2,3)                  1.3924         estimate D2E/DX2                !
 ! R5    R(2,7)                  1.0873         estimate D2E/DX2                !
 ! R6    R(3,4)                  1.3935         estimate D2E/DX2                !
 ! R7    R(3,8)                  1.0868         estimate D2E/DX2                !
 ! R8    R(4,5)                  1.3902         estimate D2E/DX2                !
 ! R9    R(4,9)                  1.0869         estimate D2E/DX2                !
 ! R10   R(5,6)                  1.397          estimate D2E/DX2                !
 ! R11   R(5,36)                 1.43           estimate D2E/DX2                !
 ! R12   R(6,10)                 1.4667         estimate D2E/DX2                !
 ! R13   R(10,11)                1.3709         estimate D2E/DX2                !
 ! R14   R(10,20)                1.3258         estimate D2E/DX2                !
 ! R15   R(11,15)                1.432          estimate D2E/DX2                !
 ! R16   R(11,22)                1.4611         estimate D2E/DX2                !
 ! R17   R(12,13)                1.4506         estimate D2E/DX2                !
 ! R18   R(12,14)                1.4535         estimate D2E/DX2                !
 ! R19   R(12,15)                1.6878         estimate D2E/DX2                !
 ! R20   R(15,16)                1.4737         estimate D2E/DX2                !
 ! R21   R(16,17)                1.0943         estimate D2E/DX2                !
 ! R22   R(16,18)                1.1001         estimate D2E/DX2                !
 ! R23   R(16,19)                1.0914         estimate D2E/DX2                !
 ! R24   R(20,21)                0.9944         estimate D2E/DX2                !
 ! R25   R(22,23)                1.2413         estimate D2E/DX2                !
 ! R26   R(22,24)                1.3632         estimate D2E/DX2                !
 ! R27   R(24,25)                1.0164         estimate D2E/DX2                !
 ! R28   R(24,26)                1.3862         estimate D2E/DX2                !
 ! R29   R(26,27)                1.3158         estimate D2E/DX2                !
 ! R30   R(26,29)                1.4195         estimate D2E/DX2                !
 ! R31   R(27,34)                1.3839         estimate D2E/DX2                !
 ! R32   R(28,29)                1.3605         estimate D2E/DX2                !
 ! R33   R(28,30)                1.4784         estimate D2E/DX2                !
 ! R34   R(28,34)                1.3442         estimate D2E/DX2                !
 ! R35   R(29,35)                1.0787         estimate D2E/DX2                !
 ! R36   R(30,31)                1.0954         estimate D2E/DX2                !
 ! R37   R(30,32)                1.0954         estimate D2E/DX2                !
 ! R38   R(30,33)                1.0925         estimate D2E/DX2                !
 ! R39   R(36,37)                0.96           estimate D2E/DX2                !
 ! A1    A(2,1,6)              121.9666         estimate D2E/DX2                !
 ! A2    A(2,1,12)             120.2727         estimate D2E/DX2                !
 ! A3    A(6,1,12)             117.7083         estimate D2E/DX2                !
 ! A4    A(1,2,3)              118.8625         estimate D2E/DX2                !
 ! A5    A(1,2,7)              119.6044         estimate D2E/DX2                !
 ! A6    A(3,2,7)              121.5331         estimate D2E/DX2                !
 ! A7    A(2,3,4)              120.0841         estimate D2E/DX2                !
 ! A8    A(2,3,8)              119.7688         estimate D2E/DX2                !
 ! A9    A(4,3,8)              120.1467         estimate D2E/DX2                !
 ! A10   A(3,4,5)              120.6489         estimate D2E/DX2                !
 ! A11   A(3,4,9)              119.8289         estimate D2E/DX2                !
 ! A12   A(5,4,9)              119.5213         estimate D2E/DX2                !
 ! A13   A(4,5,6)              120.1123         estimate D2E/DX2                !
 ! A14   A(4,5,36)             120.9633         estimate D2E/DX2                !
 ! A15   A(6,5,36)             118.9236         estimate D2E/DX2                !
 ! A16   A(1,6,5)              118.3058         estimate D2E/DX2                !
 ! A17   A(1,6,10)             120.8249         estimate D2E/DX2                !
 ! A18   A(5,6,10)             120.8678         estimate D2E/DX2                !
 ! A19   A(6,10,11)            122.0696         estimate D2E/DX2                !
 ! A20   A(6,10,20)            114.8248         estimate D2E/DX2                !
 ! A21   A(11,10,20)           123.0974         estimate D2E/DX2                !
 ! A22   A(10,11,15)           121.5351         estimate D2E/DX2                !
 ! A23   A(10,11,22)           120.2454         estimate D2E/DX2                !
 ! A24   A(15,11,22)           118.2161         estimate D2E/DX2                !
 ! A25   A(1,12,13)            108.9243         estimate D2E/DX2                !
 ! A26   A(1,12,14)            108.9641         estimate D2E/DX2                !
 ! A27   A(1,12,15)             99.8733         estimate D2E/DX2                !
 ! A28   A(13,12,14)           121.51           estimate D2E/DX2                !
 ! A29   A(13,12,15)           107.3725         estimate D2E/DX2                !
 ! A30   A(14,12,15)           108.0234         estimate D2E/DX2                !
 ! A31   A(11,15,12)           112.7889         estimate D2E/DX2                !
 ! A32   A(11,15,16)           114.8403         estimate D2E/DX2                !
 ! A33   A(12,15,16)           115.2412         estimate D2E/DX2                !
 ! A34   A(15,16,17)           107.6635         estimate D2E/DX2                !
 ! A35   A(15,16,18)           111.8177         estimate D2E/DX2                !
 ! A36   A(15,16,19)           109.4755         estimate D2E/DX2                !
 ! A37   A(17,16,18)           108.8111         estimate D2E/DX2                !
 ! A38   A(17,16,19)           109.1672         estimate D2E/DX2                !
 ! A39   A(18,16,19)           109.8452         estimate D2E/DX2                !
 ! A40   A(10,20,21)           107.0159         estimate D2E/DX2                !
 ! A41   A(11,22,23)           121.7788         estimate D2E/DX2                !
 ! A42   A(11,22,24)           115.4124         estimate D2E/DX2                !
 ! A43   A(23,22,24)           122.8086         estimate D2E/DX2                !
 ! A44   A(22,24,25)           117.1598         estimate D2E/DX2                !
 ! A45   A(22,24,26)           125.8599         estimate D2E/DX2                !
 ! A46   A(25,24,26)           116.7343         estimate D2E/DX2                !
 ! A47   A(24,26,27)           117.4918         estimate D2E/DX2                !
 ! A48   A(24,26,29)           129.8157         estimate D2E/DX2                !
 ! A49   A(27,26,29)           112.6915         estimate D2E/DX2                !
 ! A50   A(26,27,34)           104.7452         estimate D2E/DX2                !
 ! A51   A(29,28,30)           133.3702         estimate D2E/DX2                !
 ! A52   A(29,28,34)           110.0184         estimate D2E/DX2                !
 ! A53   A(30,28,34)           116.6111         estimate D2E/DX2                !
 ! A54   A(26,29,28)           102.7977         estimate D2E/DX2                !
 ! A55   A(26,29,35)           127.9647         estimate D2E/DX2                !
 ! A56   A(28,29,35)           129.2362         estimate D2E/DX2                !
 ! A57   A(28,30,31)           110.8496         estimate D2E/DX2                !
 ! A58   A(28,30,32)           110.8214         estimate D2E/DX2                !
 ! A59   A(28,30,33)           110.1317         estimate D2E/DX2                !
 ! A60   A(31,30,32)           107.6166         estimate D2E/DX2                !
 ! A61   A(31,30,33)           108.687          estimate D2E/DX2                !
 ! A62   A(32,30,33)           108.654          estimate D2E/DX2                !
 ! A63   A(27,34,28)           109.7469         estimate D2E/DX2                !
 ! A64   A(5,36,37)            109.5            estimate D2E/DX2                !
 ! D1    D(6,1,2,3)              1.015          estimate D2E/DX2                !
 ! D2    D(6,1,2,7)           -178.9377         estimate D2E/DX2                !
 ! D3    D(12,1,2,3)          -176.2906         estimate D2E/DX2                !
 ! D4    D(12,1,2,7)             3.7567         estimate D2E/DX2                !
 ! D5    D(2,1,6,5)             -1.6605         estimate D2E/DX2                !
 ! D6    D(2,1,6,10)           177.892          estimate D2E/DX2                !
 ! D7    D(12,1,6,5)           175.7111         estimate D2E/DX2                !
 ! D8    D(12,1,6,10)           -4.7364         estimate D2E/DX2                !
 ! D9    D(2,1,12,13)          101.9038         estimate D2E/DX2                !
 ! D10   D(2,1,12,14)          -32.6866         estimate D2E/DX2                !
 ! D11   D(2,1,12,15)         -145.7587         estimate D2E/DX2                !
 ! D12   D(6,1,12,13)          -75.5143         estimate D2E/DX2                !
 ! D13   D(6,1,12,14)          149.8952         estimate D2E/DX2                !
 ! D14   D(6,1,12,15)           36.8232         estimate D2E/DX2                !
 ! D15   D(1,2,3,4)              0.2316         estimate D2E/DX2                !
 ! D16   D(1,2,3,8)           -179.9893         estimate D2E/DX2                !
 ! D17   D(7,2,3,4)           -179.8167         estimate D2E/DX2                !
 ! D18   D(7,2,3,8)             -0.0375         estimate D2E/DX2                !
 ! D19   D(2,3,4,5)             -0.8005         estimate D2E/DX2                !
 ! D20   D(2,3,4,9)            179.5438         estimate D2E/DX2                !
 ! D21   D(8,3,4,5)            179.4212         estimate D2E/DX2                !
 ! D22   D(8,3,4,9)             -0.2345         estimate D2E/DX2                !
 ! D23   D(3,4,5,6)              0.1326         estimate D2E/DX2                !
 ! D24   D(3,4,5,36)          -179.5294         estimate D2E/DX2                !
 ! D25   D(9,4,5,6)            179.7894         estimate D2E/DX2                !
 ! D26   D(9,4,5,36)             0.1273         estimate D2E/DX2                !
 ! D27   D(4,5,6,1)              1.0647         estimate D2E/DX2                !
 ! D28   D(4,5,6,10)          -178.4876         estimate D2E/DX2                !
 ! D29   D(36,5,6,1)          -179.2664         estimate D2E/DX2                !
 ! D30   D(36,5,6,10)            1.1813         estimate D2E/DX2                !
 ! D31   D(4,5,36,37)         -179.8061         estimate D2E/DX2                !
 ! D32   D(6,5,36,37)            0.5279         estimate D2E/DX2                !
 ! D33   D(1,6,10,11)          -17.1222         estimate D2E/DX2                !
 ! D34   D(1,6,10,20)          161.8661         estimate D2E/DX2                !
 ! D35   D(5,6,10,11)          162.4187         estimate D2E/DX2                !
 ! D36   D(5,6,10,20)          -18.5929         estimate D2E/DX2                !
 ! D37   D(6,10,11,15)          -3.5172         estimate D2E/DX2                !
 ! D38   D(6,10,11,22)         175.7943         estimate D2E/DX2                !
 ! D39   D(20,10,11,15)        177.5787         estimate D2E/DX2                !
 ! D40   D(20,10,11,22)         -3.1097         estimate D2E/DX2                !
 ! D41   D(6,10,20,21)         178.7005         estimate D2E/DX2                !
 ! D42   D(11,10,20,21)         -2.3228         estimate D2E/DX2                !
 ! D43   D(10,11,15,12)         43.5664         estimate D2E/DX2                !
 ! D44   D(10,11,15,16)        -91.1969         estimate D2E/DX2                !
 ! D45   D(22,11,15,12)       -135.7586         estimate D2E/DX2                !
 ! D46   D(22,11,15,16)         89.4781         estimate D2E/DX2                !
 ! D47   D(10,11,22,23)          8.2814         estimate D2E/DX2                !
 ! D48   D(10,11,22,24)       -171.8758         estimate D2E/DX2                !
 ! D49   D(15,11,22,23)       -172.3845         estimate D2E/DX2                !
 ! D50   D(15,11,22,24)          7.4583         estimate D2E/DX2                !
 ! D51   D(1,12,15,11)         -54.431          estimate D2E/DX2                !
 ! D52   D(1,12,15,16)          80.1429         estimate D2E/DX2                !
 ! D53   D(13,12,15,11)         59.1085         estimate D2E/DX2                !
 ! D54   D(13,12,15,16)       -166.3177         estimate D2E/DX2                !
 ! D55   D(14,12,15,11)       -168.2289         estimate D2E/DX2                !
 ! D56   D(14,12,15,16)        -33.655          estimate D2E/DX2                !
 ! D57   D(11,15,16,17)        -56.1504         estimate D2E/DX2                !
 ! D58   D(11,15,16,18)         63.3212         estimate D2E/DX2                !
 ! D59   D(11,15,16,19)       -174.7114         estimate D2E/DX2                !
 ! D60   D(12,15,16,17)        170.2099         estimate D2E/DX2                !
 ! D61   D(12,15,16,18)        -70.3185         estimate D2E/DX2                !
 ! D62   D(12,15,16,19)         51.6489         estimate D2E/DX2                !
 ! D63   D(11,22,24,25)          6.4466         estimate D2E/DX2                !
 ! D64   D(11,22,24,26)       -179.4616         estimate D2E/DX2                !
 ! D65   D(23,22,24,25)       -173.7125         estimate D2E/DX2                !
 ! D66   D(23,22,24,26)          0.3794         estimate D2E/DX2                !
 ! D67   D(22,24,26,27)       -179.5702         estimate D2E/DX2                !
 ! D68   D(22,24,26,29)          0.8082         estimate D2E/DX2                !
 ! D69   D(25,24,26,27)         -5.456          estimate D2E/DX2                !
 ! D70   D(25,24,26,29)        174.9224         estimate D2E/DX2                !
 ! D71   D(24,26,27,34)       -179.8465         estimate D2E/DX2                !
 ! D72   D(29,26,27,34)         -0.1616         estimate D2E/DX2                !
 ! D73   D(24,26,29,28)        179.7735         estimate D2E/DX2                !
 ! D74   D(24,26,29,35)         -0.6311         estimate D2E/DX2                !
 ! D75   D(27,26,29,28)          0.1374         estimate D2E/DX2                !
 ! D76   D(27,26,29,35)        179.7327         estimate D2E/DX2                !
 ! D77   D(26,27,34,28)          0.1241         estimate D2E/DX2                !
 ! D78   D(30,28,29,26)        179.7674         estimate D2E/DX2                !
 ! D79   D(30,28,29,35)          0.1793         estimate D2E/DX2                !
 ! D80   D(34,28,29,26)         -0.0523         estimate D2E/DX2                !
 ! D81   D(34,28,29,35)       -179.6404         estimate D2E/DX2                !
 ! D82   D(29,28,30,31)        120.7582         estimate D2E/DX2                !
 ! D83   D(29,28,30,32)       -119.8147         estimate D2E/DX2                !
 ! D84   D(29,28,30,33)          0.442          estimate D2E/DX2                !
 ! D85   D(34,28,30,31)        -59.4313         estimate D2E/DX2                !
 ! D86   D(34,28,30,32)         59.9959         estimate D2E/DX2                !
 ! D87   D(34,28,30,33)       -179.7475         estimate D2E/DX2                !
 ! D88   D(29,28,34,27)         -0.0417         estimate D2E/DX2                !
 ! D89   D(30,28,34,27)       -179.8951         estimate D2E/DX2                !
 --------------------------------------------------------------------------------
 Trust Radius=3.00D-01 FncErr=1.00D-07 GrdErr=1.00D-06 EigMax=2.50D+02 EigMin=1.00D-04
 Number of steps in this run=    202 maximum allowed number of steps=    222.
 GradGradGradGradGradGradGradGradGradGradGradGradGradGradGradGradGradGrad

                          Input orientation:                          
 ---------------------------------------------------------------------
 Center     Atomic      Atomic             Coordinates (Angstroms)
 Number     Number       Type             X           Y           Z
 ---------------------------------------------------------------------
      1          6           0       -3.098007   -0.275499   -0.146862
      2          6           0       -4.445792   -0.596026   -0.097961
      3          6           0       -5.374198    0.427261    0.074677
      4          6           0       -4.944761    1.747869    0.190277
      5          6           0       -3.590250    2.058590    0.151763
      6          6           0       -2.642744    1.044344   -0.006799
      7          1           0       -4.754851   -1.634040   -0.193689
      8          1           0       -6.434546    0.192607    0.115283
      9          1           0       -5.673486    2.544159    0.317463
     10          6           0       -1.208229    1.349557   -0.016675
     11          6           0       -0.257033    0.383070    0.184438
     12         16           0       -1.886158   -1.539543   -0.464455
     13          8           0       -1.462781   -1.448168   -1.848846
     14          8           0       -2.350088   -2.792883    0.106895
     15          7           0       -0.616100   -0.969118    0.489651
     16          6           0       -0.725886   -1.270929    1.927933
     17          1           0        0.227601   -1.008014    2.396092
     18          1           0       -1.528297   -0.690869    2.407316
     19          1           0       -0.909014   -2.338376    2.062800
     20          8           0       -0.910954    2.619516   -0.254694
     21          1           0        0.079459    2.699140   -0.213890
     22          6           0        1.162088    0.713207    0.075600
     23          8           0        1.553129    1.884878   -0.047724
     24          7           0        2.015069   -0.349066    0.122458
     25          1           0        1.600571   -1.277117    0.126214
     26          6           0        3.397820   -0.283988    0.049877
     27          7           0        4.062891   -1.418077    0.103036
     28          6           0        5.490051    0.286626   -0.087228
     29          6           0        4.249606    0.845270   -0.069912
     30          6           0        6.854195    0.846400   -0.194389
     31          1           0        7.456061    0.576813    0.680255
     32          1           0        7.365954    0.457797   -1.081518
     33          1           0        6.809122    1.935664   -0.266041
     34          8           0        5.394054   -1.050293    0.013703
     35          1           0        3.968335    1.884452   -0.137094
     36          8           0       -3.141579    3.410335    0.279750
     37          1           0       -2.183348    3.436227    0.227562
 ---------------------------------------------------------------------
                    Distance matrix (angstroms):
                    1          2          3          4          5
     1  C    0.000000
     2  C    1.386237   0.000000
     3  C    2.392488   1.392429   0.000000
     4  C    2.760105   2.413689   1.393479   0.000000
     5  C    2.404049   2.800232   2.418604   1.390227   0.000000
     6  C    1.403163   2.439284   2.801477   2.415175   1.396998
     7  H    2.143119   1.087269   2.169003   3.408930   3.887306
     8  H    3.379399   2.150013   1.086761   2.154976   3.401947
     9  H    3.846968   3.397142   2.151691   1.086874   2.145485
    10  C    2.495800   3.778057   4.267818   3.763396   2.491008
    11  C    2.935065   4.310926   5.118533   4.882367   3.730787
    12  S    1.779677   2.752502   4.040471   4.537709   4.028674
    13  O    2.635501   3.562317   4.745140   5.147510   4.563542
    14  O    2.638370   3.043045   4.417647   5.230460   5.007675
    15  N    2.654453   3.892432   4.976100   5.119468   4.257552
    16  C    3.304938   4.289224   5.284431   5.470968   4.737622
    17  H    4.250043   5.313251   6.231303   6.262095   5.386748
    18  H    3.026607   3.846711   4.634908   4.747097   4.110802
    19  H    3.732259   4.495939   5.615982   6.040778   5.493123
    20  O    3.629868   4.781146   4.983474   4.150827   2.767395
    21  H    4.353075   5.599058   5.914988   5.129430   3.743096
    22  C    4.378977   5.761296   6.542538   6.194940   4.939694
    23  O    5.129339   6.491877   7.080077   6.503691   5.150177
    24  N    5.120692   6.469335   7.430090   7.269179   6.100596
    25  H    4.811907   6.088731   7.180178   7.210826   6.170269
    26  C    6.498811   7.851208   8.800840   8.587596   7.370968
    27  N    7.255783   8.550664   9.615858   9.548226   8.405959
    28  C    8.606642   9.974977  10.866365  10.540282   9.254666
    29  C    7.432998   8.814083   9.633963   9.242227   7.936285
    30  C   10.015350  11.392085  12.238532  11.839594  10.520250
    31  H   10.620683  11.984794  12.845413  12.465626  11.157775
    32  H   10.531182  11.899381  12.792544  12.443289  11.141002
    33  H   10.151584  11.537365  12.281069  11.764236  10.408487
    34  O    8.528844   9.850959  10.869321  10.712235   9.507993
    35  H    7.389091   8.772220   9.457863   8.920152   7.566107
    36  O    3.710696   4.230197   3.731671   2.454234   1.430000
    37  H    3.841055   4.635049   4.388481   3.236872   1.970533
                    6          7          8          9         10
     6  C    0.000000
     7  H    3.416089   0.000000
     8  H    3.888203   2.500696   0.000000
     9  H    3.397056   4.308424   2.479896   0.000000
    10  C    1.466658   4.638072   5.354469   4.634355   0.000000
    11  C    2.483037   4.943893   6.180835   5.833178   1.370882
    12  S    2.730997   2.882992   4.901456   5.624222   3.001165
    13  O    3.316333   3.689420   5.591815   6.193675   3.353940
    14  O    3.850050   2.686290   5.059251   6.290734   4.298712
    15  N    2.899617   4.247156   5.945088   6.160350   2.446066
    16  C    3.574636   4.567898   6.165747   6.451919   3.298652
    17  H    4.269068   5.650106   7.143373   7.194544   3.666223
    18  H    3.175044   4.250347   5.486823   5.658223   3.184574
    19  H    4.328031   4.514232   6.382022   7.041700   4.244360
    20  O    2.354085   5.733411   6.044571   4.797369   1.325829
    21  H    3.192433   6.492104   6.987369   5.779510   1.875742
    22  C    3.820103   6.371205   7.614555   7.080675   2.455984
    23  O    4.279430   7.224590   8.166597   7.265809   2.812940
    24  N    4.863489   6.898038   8.466963   8.217217   3.646139
    25  H    4.838656   6.373470   8.168434   8.218919   3.848271
    26  C    6.185151   8.267285   9.844127   9.505715   4.887595
    27  N    7.144307   8.825376  10.620294  10.513911   5.954732
    28  C    8.168412  10.423930  11.926687  11.396701   6.782459
    29  C    6.895513   9.340372  10.705670  10.074921   5.481341
    30  C    9.500854  11.871080  13.308418  12.652556   8.080064
    31  H   10.132941  12.440178  13.907400  13.281080   8.726555
    32  H   10.083308  12.331988  13.854835  13.279196   8.685951
    33  H    9.497338  12.102623  13.363323  12.511045   8.042613
    34  O    8.305302  10.167794  11.894154  11.640567   7.024980
    35  H    6.665518   9.406219  10.542579   9.675048   5.205519
    36  O    2.434925   5.317190   4.607000   2.676235   2.841217
    37  H    2.446849   5.700674   5.348491   3.603460   2.316182
                   11         12         13         14         15
    11  C    0.000000
    12  S    2.602220   0.000000
    13  O    2.990235   1.450564   0.000000
    14  O    3.804414   1.453456   2.533870   0.000000
    15  N    1.431955   1.687824   2.532770   2.545454   0.000000
    16  C    2.448532   2.672434   3.852076   2.875857   1.473702
    17  H    2.657329   3.596280   4.590275   3.882095   2.085153
    18  H    2.776805   3.015855   4.323507   3.222691   2.141720
    19  H    3.370399   2.824883   4.049704   2.471606   2.106054
    20  O    2.371105   4.277008   4.403622   5.612122   3.676858
    21  H    2.374041   4.678981   4.717176   6.013977   3.799327
    22  C    1.461075   3.828622   3.907041   4.962764   2.482662
    23  O    2.363475   4.871244   4.842412   6.094297   3.624861
    24  N    2.387951   4.120834   4.146023   5.002707   2.728066
    25  H    2.492048   3.546130   3.648869   4.231504   2.267285
    26  C    3.717664   5.455399   5.346579   6.271862   4.095651
    27  N    4.681079   5.977289   5.860358   6.558689   4.716354
    28  C    5.754310   7.608262   7.379342   8.425487   6.260572
    29  C    4.537413   6.594740   6.407482   7.538128   5.223046
    30  C    7.136368   9.064184   8.784894   9.902221   7.718117
    31  H    7.731442   9.647092   9.489080  10.384804   8.221071
    32  H    7.727753   9.485342   9.064660  10.314103   8.259409
    33  H    7.248726   9.366127   9.076341  10.314522   8.008917
    34  O    5.832535   7.312283   7.116430   7.938327   6.029516
    35  H    4.495694   6.790140   6.597990   7.865079   5.436241
    36  O    4.182586   5.160544   5.563662   6.255897   5.059813
    37  H    3.610307   5.032444   5.356118   6.232509   4.683163
                   16         17         18         19         20
    16  C    0.000000
    17  H    1.094274   0.000000
    18  H    1.100064   1.784344   0.000000
    19  H    1.091406   1.781247   1.793455   0.000000
    20  O    4.464714   4.634862   4.292558   5.472794   0.000000
    21  H    4.582296   4.536182   4.576872   5.615778   0.994446
    22  C    3.306415   3.036536   3.827075   4.189342   2.835597
    23  O    4.365346   4.012242   4.707110   5.324691   2.579580
    24  N    3.409165   2.966255   4.229994   4.033924   4.185252
    25  H    2.942555   2.666423   3.916239   3.342851   4.651516
    26  C    4.637467   4.009891   5.476285   5.178918   5.204674
    27  N    5.126820   4.487283   6.090970   5.422865   6.416328
    28  C    6.717494   5.961237   7.512353   7.243017   6.814931
    29  C    5.764131   5.068763   6.471518   6.426151   5.460171
    30  C    8.151378   7.352632   8.910569   8.689368   7.965244
    31  H    8.480278   7.596473   9.236257   8.965726   8.663354
    32  H    8.804724   8.074556   9.622842   9.283341   8.594409
    33  H    8.477742   7.685611   9.141010   9.124721   7.750313
    34  O    6.416122   5.689446   7.333315   6.751787   7.300182
    35  H    6.021335   5.364372   6.581737   6.816182   4.935748
    36  O    5.519629   5.945762   4.893780   6.419602   2.426255
    37  H    5.212751   5.501497   4.713103   6.191774   1.587002
                   21         22         23         24         25
    21  H    0.000000
    22  C    2.280311   0.000000
    23  O    1.691844   1.241344   0.000000
    24  N    3.626469   1.363157   2.287544   0.000000
    25  H    4.270840   2.038681   3.167131   1.016416   0.000000
    26  C    4.469916   2.448174   2.848928   1.386183   2.054808
    27  N    5.737565   3.599692   4.151042   2.310138   2.466460
    28  C    5.925434   4.351982   4.249156   3.538866   4.197488
    29  C    4.565927   3.093765   2.890029   2.540984   3.400056
    30  C    7.023537   5.700063   5.403818   4.994664   5.675621
    31  H    7.727744   6.324421   6.089794   5.547322   6.166910
    32  H    7.672640   6.316020   6.074062   5.543695   6.140699
    33  H    6.773033   5.787928   5.260770   5.324835   6.132278
    34  O    6.508069   4.585117   4.834429   3.452693   3.801923
    35  H    3.974037   3.048291   2.416859   2.978459   3.958681
    36  O    3.335351   5.083082   4.947175   6.383483   6.669615
    37  H    2.420429   4.316234   4.055087   5.653866   6.045157
                   26         27         28         29         30
    26  C    0.000000
    27  N    1.315790   0.000000
    28  C    2.172977   2.231367   0.000000
    29  C    1.419547   2.277611   1.360546   0.000000
    30  C    3.644718   3.606618   1.478418   2.607562   0.000000
    31  H    4.196150   3.978237   2.130360   3.303963   1.095409
    32  H    4.192420   3.978982   2.130006   3.299259   1.095403
    33  H    4.082112   4.350354   2.119257   2.789005   1.092548
    34  O    2.138570   1.383922   1.344156   2.215832   2.402657
    35  H    2.250017   3.312597   2.207069   1.078669   3.067413
    36  O    7.514293   8.674628   9.186799   7.831439  10.330250
    37  H    6.709770   7.911718   8.300611   6.941502   9.410762
                   31         32         33         34         35
    31  H    0.000000
    32  H    1.768086   0.000000
    33  H    1.777775   1.777401   0.000000
    34  O    2.709915   2.713344   3.316114   0.000000
    35  H    3.813425   3.804089   2.844173   3.266212   0.000000
    36  O   10.977214  10.999036  10.074175   9.634574   7.283746
    37  H   10.064760  10.088306   9.130162   8.808611   6.354855
                   36         37
    36  O    0.000000
    37  H    0.960000   0.000000
 Stoichiometry    C14H13N3O6S
 Framework group  C1[X(C14H13N3O6S)]
 Deg. of freedom   105
 Full point group                 C1      NOp   1
 Largest Abelian subgroup         C1      NOp   1
 Largest concise Abelian subgroup C1      NOp   1
                         Standard orientation:                         
 ---------------------------------------------------------------------
 Center     Atomic      Atomic             Coordinates (Angstroms)
 Number     Number       Type             X           Y           Z
 ---------------------------------------------------------------------
      1          6           0       -2.942109   -0.568117   -0.157975
      2          6           0       -4.273647   -0.950193   -0.106229
      3          6           0       -5.249280    0.031726    0.044877
      4          6           0       -4.882220    1.372862    0.136563
      5          6           0       -3.543540    1.745653    0.095402
      6          6           0       -2.549295    0.773918   -0.041755
      7          1           0       -4.533692   -2.003105   -0.183092
      8          1           0       -6.297668   -0.251334    0.087391
      9          1           0       -5.647665    2.136534    0.246980
     10          6           0       -1.130535    1.145477   -0.053990
     11          6           0       -0.135997    0.228350    0.167570
     12         16           0       -1.671654   -1.779982   -0.448797
     13          8           0       -1.248504   -1.694905   -1.833659
     14          8           0       -2.078533   -3.042676    0.144992
     15          7           0       -0.432657   -1.133161    0.497384
     16          6           0       -0.532928   -1.412770    1.940839
     17          1           0        0.405749   -1.096939    2.406212
     18          1           0       -1.363047   -0.861894    2.407294
     19          1           0       -0.666556   -2.484883    2.095383
     20          8           0       -0.891986    2.423239   -0.315217
     21          1           0        0.093504    2.549727   -0.273576
     22          6           0        1.266546    0.622230    0.055886
     23          8           0        1.602967    1.808351   -0.088591
     24          7           0        2.167941   -0.398033    0.124793
     25          1           0        1.797125   -1.344176    0.145072
     26          6           0        3.546386   -0.269895    0.054272
     27          7           0        4.263401   -1.370530    0.130388
     28          6           0        5.610190    0.395027   -0.088617
     29          6           0        4.345013    0.895425   -0.084779
     30          6           0        6.947111    1.015720   -0.203087
     31          1           0        7.558043    0.790933    0.677909
     32          1           0        7.479297    0.634863   -1.081514
     33          1           0        6.851565    2.100162   -0.295379
     34          8           0        5.576264   -0.942789    0.037287
     35          1           0        4.015847    1.918915   -0.172217
     36          8           0       -3.158759    3.119016    0.198932
     37          1           0       -2.202611    3.188597    0.148534
 ---------------------------------------------------------------------
 Rotational constants (GHZ):           0.5130479           0.1211687           0.1032995
 Standard basis: 6-31+G(d,p) (6D, 7F)
 There are   525 symmetry adapted cartesian basis functions of A   symmetry.
 There are   525 symmetry adapted basis functions of A   symmetry.
   525 basis functions,   883 primitive gaussians,   525 cartesian basis functions
    91 alpha electrons       91 beta electrons
       nuclear repulsion energy      2302.0342255441 Hartrees.
 NAtoms=   37 NActive=   37 NUniq=   37 SFac= 1.00D+00 NAtFMM=   60 NAOKFM=F Big=F
 Integral buffers will be    131072 words long.
 Raffenetti 2 integral format.
 Two-electron integral symmetry is turned on.
 One-electron integrals computed using PRISM.
 NBasis=   525 RedAO= T EigKep=  1.14D-06  NBF=   525
 NBsUse=   522 1.00D-06 EigRej=  6.87D-07 NBFU=   522
 ExpMin= 4.05D-02 ExpMax= 2.19D+04 ExpMxC= 3.30D+03 IAcc=3 IRadAn=         5 AccDes= 0.00D+00
 Harris functional with IExCor= 1009 and IRadAn=       5 diagonalized for initial guess.
 HarFok:  IExCor= 1009 AccDes= 0.00D+00 IRadAn=         5 IDoV= 1 UseB2=F ITyADJ=14
 ICtDFT=  3500011 ScaDFX=  1.000000  1.000000  1.000000  1.000000
 FoFCou: FMM=F IPFlag=           0 FMFlag=      100000 FMFlg1=           0
         NFxFlg=           0 DoJE=T BraDBF=F KetDBF=T FulRan=T
         wScrn=  0.000000 ICntrl=       500 IOpCl=  0 I1Cent=   200000004 NGrid=           0
         NMat0=    1 NMatS0=      1 NMatT0=    0 NMatD0=    1 NMtDS0=    0 NMtDT0=    0
 Petite list used in FoFCou.
 Requested convergence on RMS density matrix=1.00D-08 within 128 cycles.
 Requested convergence on MAX density matrix=1.00D-06.
 Requested convergence on             energy=1.00D-06.
 No special actions if energy rises.
 SCF Done:  E(RM06) =  -1554.36086059     A.U. after   17 cycles
            NFock= 17  Conv=0.22D-08     -V/T= 2.0084

 **********************************************************************

            Population analysis using the SCF Density.

 **********************************************************************

 Orbital symmetries:
       Occupied  (A) (A) (A) (A) (A) (A) (A) (A) (A) (A) (A) (A)
                 (A) (A) (A) (A) (A) (A) (A) (A) (A) (A) (A) (A)
                 (A) (A) (A) (A) (A) (A) (A) (A) (A) (A) (A) (A)
                 (A) (A) (A) (A) (A) (A) (A) (A) (A) (A) (A) (A)
                 (A) (A) (A) (A) (A) (A) (A) (A) (A) (A) (A) (A)
                 (A) (A) (A) (A) (A) (A) (A) (A) (A) (A) (A) (A)
                 (A) (A) (A) (A) (A) (A) (A) (A) (A) (A) (A) (A)
                 (A) (A) (A) (A) (A) (A) (A)
       Virtual   (A) (A) (A) (A) (A) (A) (A) (A) (A) (A) (A) (A)
                 (A) (A) (A) (A) (A) (A) (A) (A) (A) (A) (A) (A)
                 (A) (A) (A) (A) (A) (A) (A) (A) (A) (A) (A) (A)
                 (A) (A) (A) (A) (A) (A) (A) (A) (A) (A) (A) (A)
                 (A) (A) (A) (A) (A) (A) (A) (A) (A) (A) (A) (A)
                 (A) (A) (A) (A) (A) (A) (A) (A) (A) (A) (A) (A)
                 (A) (A) (A) (A) (A) (A) (A) (A) (A) (A) (A) (A)
                 (A) (A) (A) (A) (A) (A) (A) (A) (A) (A) (A) (A)
                 (A) (A) (A) (A) (A) (A) (A) (A) (A) (A) (A) (A)
                 (A) (A) (A) (A) (A) (A) (A) (A) (A) (A) (A) (A)
                 (A) (A) (A) (A) (A) (A) (A) (A) (A) (A) (A) (A)
                 (A) (A) (A) (A) (A) (A) (A) (A) (A) (A) (A) (A)
                 (A) (A) (A) (A) (A) (A) (A) (A) (A) (A) (A) (A)
                 (A) (A) (A) (A) (A) (A) (A) (A) (A) (A) (A) (A)
                 (A) (A) (A) (A) (A) (A) (A) (A) (A) (A) (A) (A)
                 (A) (A) (A) (A) (A) (A) (A) (A) (A) (A) (A) (A)
                 (A) (A) (A) (A) (A) (A) (A) (A) (A) (A) (A) (A)
                 (A) (A) (A) (A) (A) (A) (A) (A) (A) (A) (A) (A)
                 (A) (A) (A) (A) (A) (A) (A) (A) (A) (A) (A) (A)
                 (A) (A) (A) (A) (A) (A) (A) (A) (A) (A) (A) (A)
                 (A) (A) (A) (A) (A) (A) (A) (A) (A) (A) (A) (A)
                 (A) (A) (A) (A) (A) (A) (A) (A) (A) (A) (A) (A)
                 (A) (A) (A) (A) (A) (A) (A) (A) (A) (A) (A) (A)
                 (A) (A) (A) (A) (A) (A) (A) (A) (A) (A) (A) (A)
                 (A) (A) (A) (A) (A) (A) (A) (A) (A) (A) (A) (A)
                 (A) (A) (A) (A) (A) (A) (A) (A) (A) (A) (A) (A)
                 (A) (A) (A) (A) (A) (A) (A) (A) (A) (A) (A) (A)
                 (A) (A) (A) (A) (A) (A) (A) (A) (A) (A) (A) (A)
                 (A) (A) (A) (A) (A) (A) (A) (A) (A) (A) (A) (A)
                 (A) (A) (A) (A) (A) (A) (A) (A) (A) (A) (A) (A)
                 (A) (A) (A) (A) (A) (A) (A) (A) (A) (A) (A) (A)
                 (A) (A) (A) (A) (A) (A) (A) (A) (A) (A) (A) (A)
                 (A) (A) (A) (A) (A) (A) (A) (A) (A) (A) (A) (A)
                 (A) (A) (A) (A) (A) (A) (A) (A) (A) (A) (A) (A)
                 (A) (A) (A) (A) (A) (A) (A) (A) (A) (A) (A) (A)
                 (A) (A) (A) (A) (A) (A) (A) (A) (A) (A) (A)
 The electronic state is 1-A.
 Alpha  occ. eigenvalues --  -89.31581 -19.33889 -19.31944 -19.27349 -19.26178
 Alpha  occ. eigenvalues --  -19.25816 -19.25366 -14.48434 -14.48387 -14.46916
 Alpha  occ. eigenvalues --  -10.41002 -10.39151 -10.37000 -10.35245 -10.34906
 Alpha  occ. eigenvalues --  -10.33073 -10.32909 -10.32101 -10.31731 -10.30919
 Alpha  occ. eigenvalues --  -10.30354 -10.30067 -10.28429 -10.27541  -8.28189
 Alpha  occ. eigenvalues --   -6.20010  -6.19909  -6.19807  -1.18667  -1.17031
 Alpha  occ. eigenvalues --   -1.16125  -1.10420  -1.07868  -1.06163  -1.00841
 Alpha  occ. eigenvalues --   -0.99195  -0.92058  -0.88936  -0.84353  -0.83816
 Alpha  occ. eigenvalues --   -0.81767  -0.79710  -0.75278  -0.75109  -0.72611
 Alpha  occ. eigenvalues --   -0.69612  -0.68485  -0.65540  -0.63765  -0.62416
 Alpha  occ. eigenvalues --   -0.61890  -0.59471  -0.58705  -0.56006  -0.54368
 Alpha  occ. eigenvalues --   -0.53954  -0.53614  -0.52813  -0.51651  -0.51196
 Alpha  occ. eigenvalues --   -0.50577  -0.49893  -0.49480  -0.48521  -0.47925
 Alpha  occ. eigenvalues --   -0.47062  -0.46789  -0.46455  -0.44498  -0.44115
 Alpha  occ. eigenvalues --   -0.43760  -0.43653  -0.43214  -0.42732  -0.41522
 Alpha  occ. eigenvalues --   -0.41022  -0.39616  -0.38780  -0.38109  -0.37990
 Alpha  occ. eigenvalues --   -0.36813  -0.35566  -0.34492  -0.34118  -0.33384
 Alpha  occ. eigenvalues --   -0.32097  -0.30481  -0.29680  -0.28796  -0.27828
 Alpha  occ. eigenvalues --   -0.26302
 Alpha virt. eigenvalues --   -0.09532  -0.04591  -0.03313  -0.02860  -0.02545
 Alpha virt. eigenvalues --   -0.02255  -0.02087  -0.01176  -0.00822  -0.00765
 Alpha virt. eigenvalues --   -0.00302   0.00256   0.00767   0.00936   0.01064
 Alpha virt. eigenvalues --    0.01177   0.01896   0.02189   0.02818   0.03109
 Alpha virt. eigenvalues --    0.03889   0.04261   0.04510   0.04650   0.05088
 Alpha virt. eigenvalues --    0.05246   0.05409   0.05727   0.05954   0.06595
 Alpha virt. eigenvalues --    0.06920   0.07096   0.07791   0.08044   0.08335
 Alpha virt. eigenvalues --    0.08366   0.09037   0.09265   0.09657   0.10040
 Alpha virt. eigenvalues --    0.10106   0.10703   0.11102   0.11189   0.11676
 Alpha virt. eigenvalues --    0.12073   0.12319   0.12771   0.13354   0.13548
 Alpha virt. eigenvalues --    0.13771   0.14292   0.14385   0.14750   0.15004
 Alpha virt. eigenvalues --    0.15560   0.15972   0.16114   0.16261   0.16920
 Alpha virt. eigenvalues --    0.17144   0.17558   0.17794   0.18789   0.18949
 Alpha virt. eigenvalues --    0.19025   0.19248   0.19363   0.19814   0.20263
 Alpha virt. eigenvalues --    0.20517   0.20786   0.20916   0.21512   0.21821
 Alpha virt. eigenvalues --    0.22394   0.22568   0.22767   0.22961   0.23446
 Alpha virt. eigenvalues --    0.23801   0.24068   0.24330   0.24735   0.24794
 Alpha virt. eigenvalues --    0.25339   0.25678   0.25854   0.26281   0.26726
 Alpha virt. eigenvalues --    0.27040   0.27538   0.27952   0.28135   0.28416
 Alpha virt. eigenvalues --    0.28801   0.29033   0.29346   0.29377   0.29884
 Alpha virt. eigenvalues --    0.29963   0.30509   0.31009   0.31523   0.31993
 Alpha virt. eigenvalues --    0.32192   0.32522   0.32798   0.33177   0.33558
 Alpha virt. eigenvalues --    0.33940   0.34204   0.34525   0.34855   0.35568
 Alpha virt. eigenvalues --    0.36127   0.36569   0.37279   0.37739   0.38273
 Alpha virt. eigenvalues --    0.38768   0.39299   0.39590   0.40433   0.41084
 Alpha virt. eigenvalues --    0.42171   0.43297   0.44897   0.46525   0.47152
 Alpha virt. eigenvalues --    0.48271   0.48758   0.50284   0.50796   0.52274
 Alpha virt. eigenvalues --    0.53715   0.53803   0.55295   0.57160   0.59101
 Alpha virt. eigenvalues --    0.61003   0.62194   0.62461   0.63051   0.64228
 Alpha virt. eigenvalues --    0.64687   0.65400   0.66162   0.66547   0.68307
 Alpha virt. eigenvalues --    0.69319   0.69980   0.70227   0.70771   0.71179
 Alpha virt. eigenvalues --    0.71421   0.71558   0.72084   0.72991   0.73582
 Alpha virt. eigenvalues --    0.74084   0.75464   0.76440   0.77123   0.78020
 Alpha virt. eigenvalues --    0.79697   0.80609   0.82242   0.83730   0.84190
 Alpha virt. eigenvalues --    0.85075   0.85816   0.87373   0.87551   0.88287
 Alpha virt. eigenvalues --    0.88901   0.90066   0.90666   0.92042   0.92477
 Alpha virt. eigenvalues --    0.93000   0.94275   0.94573   0.95251   0.96487
 Alpha virt. eigenvalues --    0.96868   0.97867   0.98582   0.99207   1.00786
 Alpha virt. eigenvalues --    1.02087   1.02926   1.03611   1.04129   1.04386
 Alpha virt. eigenvalues --    1.05851   1.07570   1.08156   1.09334   1.09881
 Alpha virt. eigenvalues --    1.10275   1.10819   1.12762   1.12978   1.14853
 Alpha virt. eigenvalues --    1.14964   1.15886   1.17114   1.17779   1.18366
 Alpha virt. eigenvalues --    1.19161   1.19845   1.20919   1.21231   1.21583
 Alpha virt. eigenvalues --    1.22451   1.23608   1.24185   1.24656   1.24923
 Alpha virt. eigenvalues --    1.26274   1.27467   1.28181   1.28849   1.29784
 Alpha virt. eigenvalues --    1.31038   1.31466   1.31551   1.32269   1.32447
 Alpha virt. eigenvalues --    1.33040   1.33564   1.34448   1.34664   1.36134
 Alpha virt. eigenvalues --    1.37205   1.37401   1.37912   1.38533   1.38972
 Alpha virt. eigenvalues --    1.39546   1.40721   1.42591   1.42821   1.44224
 Alpha virt. eigenvalues --    1.45867   1.46591   1.47730   1.48637   1.49390
 Alpha virt. eigenvalues --    1.50102   1.50547   1.52660   1.53931   1.54394
 Alpha virt. eigenvalues --    1.55015   1.57915   1.60645   1.62571   1.63931
 Alpha virt. eigenvalues --    1.65529   1.66227   1.67194   1.67624   1.69150
 Alpha virt. eigenvalues --    1.69689   1.72355   1.72745   1.73731   1.74348
 Alpha virt. eigenvalues --    1.75541   1.77489   1.78024   1.79233   1.80239
 Alpha virt. eigenvalues --    1.80861   1.81877   1.82617   1.83698   1.85179
 Alpha virt. eigenvalues --    1.85476   1.86097   1.87294   1.87634   1.88184
 Alpha virt. eigenvalues --    1.88767   1.88917   1.89818   1.90156   1.91277
 Alpha virt. eigenvalues --    1.92076   1.93406   1.94028   1.94167   1.95516
 Alpha virt. eigenvalues --    1.95646   1.97401   1.98536   1.99472   2.00055
 Alpha virt. eigenvalues --    2.01079   2.01875   2.02281   2.02840   2.03116
 Alpha virt. eigenvalues --    2.03471   2.05014   2.06022   2.07603   2.09348
 Alpha virt. eigenvalues --    2.10123   2.10958   2.12445   2.12863   2.13814
 Alpha virt. eigenvalues --    2.15308   2.17084   2.18522   2.18990   2.21226
 Alpha virt. eigenvalues --    2.23423   2.24233   2.26112   2.26912   2.28290
 Alpha virt. eigenvalues --    2.29005   2.30100   2.30478   2.31514   2.32346
 Alpha virt. eigenvalues --    2.34506   2.35576   2.36285   2.36478   2.37664
 Alpha virt. eigenvalues --    2.40394   2.41478   2.43049   2.44327   2.45040
 Alpha virt. eigenvalues --    2.46768   2.47668   2.48180   2.49465   2.49936
 Alpha virt. eigenvalues --    2.50539   2.51222   2.52991   2.54738   2.55726
 Alpha virt. eigenvalues --    2.56630   2.57211   2.58198   2.58797   2.59517
 Alpha virt. eigenvalues --    2.61632   2.62151   2.64829   2.65439   2.66366
 Alpha virt. eigenvalues --    2.66832   2.68600   2.69748   2.71766   2.72849
 Alpha virt. eigenvalues --    2.74060   2.75016   2.76768   2.77725   2.79692
 Alpha virt. eigenvalues --    2.81325   2.85539   2.85945   2.86657   2.88377
 Alpha virt. eigenvalues --    2.91007   2.91484   2.92668   2.95269   2.96644
 Alpha virt. eigenvalues --    2.97968   2.99422   3.02684   3.03383   3.07099
 Alpha virt. eigenvalues --    3.09772   3.13017   3.14099   3.16556   3.18837
 Alpha virt. eigenvalues --    3.20010   3.23504   3.23893   3.25007   3.27245
 Alpha virt. eigenvalues --    3.34068   3.35277   3.36534   3.38542   3.39679
 Alpha virt. eigenvalues --    3.41232   3.42662   3.54416   3.61779   3.63888
 Alpha virt. eigenvalues --    3.64606   3.74067   3.96540   4.16713   4.23887
 Alpha virt. eigenvalues --    4.26454   4.28935   4.31237   4.32556   4.34048
 Alpha virt. eigenvalues --    4.36835   4.37622   4.41873   4.44400   4.46695
 Alpha virt. eigenvalues --    4.49915   4.50771   4.54452   4.56431   4.59669
 Alpha virt. eigenvalues --    4.63728   4.68381   4.73884   4.83032   4.88669
 Alpha virt. eigenvalues --    4.94988
          Condensed to atoms (all electrons):
               1          2          3          4          5          6
     1  C   34.066273  -6.698795   1.030693  -2.097426   1.231942 -12.669057
     2  C   -6.698795  15.586047  -0.174467  -1.353800   3.810581  -5.027312
     3  C    1.030693  -0.174467   9.047503  -0.386415   0.621125  -3.203917
     4  C   -2.097426  -1.353800  -0.386415  16.069661  -5.454183   2.902936
     5  C    1.231942   3.810581   0.621125  -5.454183  19.141544  -9.817283
     6  C  -12.669057  -5.027312  -3.203917   2.902936  -9.817283  41.192479
     7  H    0.058381   0.236391  -0.000304   0.024831  -0.037949  -0.031946
     8  H    0.054507   0.027014   0.209432   0.059377  -0.013403  -0.012175
     9  H   -0.029636  -0.006217   0.000446   0.061864   0.191236   0.097337
    10  C   -2.539739  -2.935577  -0.859107  -0.986588  -3.032287  10.409922
    11  C    0.270693   0.366711  -0.182370  -2.631642  -0.694676 -13.116144
    12  S   -2.246088   1.426177   0.034713  -0.134324   0.793009  -2.198595
    13  O    0.167850  -0.049879  -0.007385  -0.003455  -0.031801  -0.114117
    14  O   -0.062171   0.103202   0.140740  -0.022768   0.026525  -0.541569
    15  N   -1.065938   0.148278  -0.146686   0.207811  -0.092475   1.723675
    16  C    0.069815   0.106524   0.077075  -0.003517  -0.102344   0.232775
    17  H   -0.002192  -0.001190   0.000189  -0.002357  -0.004320  -0.077083
    18  H    0.027112  -0.023551  -0.003481   0.012532  -0.005246   0.131785
    19  H    0.014925  -0.000223   0.000824   0.000184   0.000180  -0.005506
    20  O   -0.197726   0.063848  -0.001447  -0.082821  -0.175839  -0.677464
    21  H    0.009922   0.004175   0.000435   0.008144   0.057138   0.107322
    22  C   -1.030856   0.235403  -0.153119  -0.453407  -0.582084  -4.235418
    23  O    0.015295  -0.001725   0.001116   0.001126   0.007848   0.085768
    24  N   -0.196292  -0.036859  -0.011460   0.018623   0.065631  -0.082320
    25  H   -0.003780  -0.001745  -0.000246   0.000188   0.000659   0.009423
    26  C   -0.137096  -0.013779  -0.007738   0.005315   0.043447  -0.283078
    27  N   -0.003122  -0.000615  -0.000042   0.000220   0.002066   0.003287
    28  C   -0.016444   0.000314  -0.000043   0.000751   0.009951  -0.003523
    29  C   -0.024028   0.001448  -0.001084  -0.000276  -0.000026  -0.055884
    30  C   -0.001281  -0.000035  -0.000002   0.000041   0.000605  -0.002162
    31  H    0.000000   0.000000   0.000000  -0.000000  -0.000000  -0.000001
    32  H   -0.000000  -0.000000  -0.000000   0.000000   0.000000   0.000000
    33  H   -0.000000   0.000000  -0.000000  -0.000000  -0.000000   0.000002
    34  O    0.000312   0.000046   0.000001  -0.000006  -0.000121   0.000556
    35  H    0.000161  -0.000005   0.000001  -0.000004  -0.000118   0.000013
    36  O    0.108493  -0.036273   0.028227  -0.670014   0.250111   0.237671
    37  H   -0.038142  -0.002013  -0.007437   0.158922   0.071075  -0.175146
               7          8          9         10         11         12
     1  C    0.058381   0.054507  -0.029636  -2.539739   0.270693  -2.246088
     2  C    0.236391   0.027014  -0.006217  -2.935577   0.366711   1.426177
     3  C   -0.000304   0.209432   0.000446  -0.859107  -0.182370   0.034713
     4  C    0.024831   0.059377   0.061864  -0.986588  -2.631642  -0.134324
     5  C   -0.037949  -0.013403   0.191236  -3.032287  -0.694676   0.793009
     6  C   -0.031946  -0.012175   0.097337  10.409922 -13.116144  -2.198595
     7  H    0.499164  -0.003988  -0.000135   0.005000  -0.009128   0.076154
     8  H   -0.003988   0.515040  -0.004593   0.000398   0.001192  -0.003897
     9  H   -0.000135  -0.004593   0.511719   0.004888   0.004121  -0.000292
    10  C    0.005000   0.000398   0.004888  26.691603 -10.186726  -1.434603
    11  C   -0.009128   0.001192   0.004121 -10.186726  28.512113  -0.455087
    12  S    0.076154  -0.003897  -0.000292  -1.434603  -0.455087  17.696037
    13  O   -0.001137   0.000004   0.000001  -0.016150  -0.129845   0.450625
    14  O    0.001219   0.000152   0.000000  -0.149113   0.411716   0.542864
    15  N   -0.000169  -0.000026  -0.000033   1.050341  -3.567068   0.077313
    16  C   -0.001128  -0.000063   0.000029   0.112668  -1.247900   0.109153
    17  H    0.000000   0.000000   0.000000  -0.180197   0.066689   0.052443
    18  H    0.000001  -0.000000  -0.000000   0.113063  -0.115557  -0.093480
    19  H    0.000001   0.000000  -0.000000   0.020155   0.016967  -0.002498
    20  O    0.000008   0.000004   0.000095  -0.278123   0.822299   0.029529
    21  H   -0.000000   0.000000  -0.000000   0.174024  -0.256072   0.000507
    22  C   -0.000873  -0.000023   0.000056  -8.308219   8.840669   0.111835
    23  O   -0.000000   0.000000   0.000000  -0.024874  -0.251349  -0.011113
    24  N   -0.000031  -0.000000   0.000000  -0.231215   0.083781  -0.051563
    25  H   -0.000000  -0.000000  -0.000000   0.033258  -0.005692  -0.006360
    26  C    0.000024  -0.000000  -0.000001  -1.257603   0.111617  -0.040513
    27  N   -0.000000  -0.000000   0.000000   0.030727  -0.072048  -0.001444
    28  C    0.000000   0.000000   0.000000   0.018258  -0.300419   0.020614
    29  C   -0.000001  -0.000000   0.000000  -0.512467   0.211193  -0.024437
    30  C    0.000000   0.000000  -0.000000  -0.012670  -0.039073   0.001259
    31  H    0.000000   0.000000   0.000000  -0.000050  -0.000117   0.000000
    32  H    0.000000   0.000000  -0.000000   0.000044  -0.000026  -0.000000
    33  H   -0.000000   0.000000  -0.000000  -0.000009   0.000184   0.000000
    34  O   -0.000000   0.000000  -0.000000   0.001410   0.019466   0.000350
    35  H    0.000000   0.000000  -0.000000   0.001447  -0.001953   0.000002
    36  O    0.000129  -0.000448  -0.006876   0.044933   0.005435  -0.001098
    37  H   -0.000000   0.000002  -0.000025   0.000834   0.012521   0.002573
              13         14         15         16         17         18
     1  C    0.167850  -0.062171  -1.065938   0.069815  -0.002192   0.027112
     2  C   -0.049879   0.103202   0.148278   0.106524  -0.001190  -0.023551
     3  C   -0.007385   0.140740  -0.146686   0.077075   0.000189  -0.003481
     4  C   -0.003455  -0.022768   0.207811  -0.003517  -0.002357   0.012532
     5  C   -0.031801   0.026525  -0.092475  -0.102344  -0.004320  -0.005246
     6  C   -0.114117  -0.541569   1.723675   0.232775  -0.077083   0.131785
     7  H   -0.001137   0.001219  -0.000169  -0.001128   0.000000   0.000001
     8  H    0.000004   0.000152  -0.000026  -0.000063   0.000000  -0.000000
     9  H    0.000001   0.000000  -0.000033   0.000029   0.000000  -0.000000
    10  C   -0.016150  -0.149113   1.050341   0.112668  -0.180197   0.113063
    11  C   -0.129845   0.411716  -3.567068  -1.247900   0.066689  -0.115557
    12  S    0.450625   0.542864   0.077313   0.109153   0.052443  -0.093480
    13  O    8.393872  -0.212062  -0.001584   0.069161  -0.000170  -0.001566
    14  O   -0.212062   8.613269  -0.278384  -0.118224   0.001119  -0.000785
    15  N   -0.001584  -0.278384  10.736117   0.511932  -0.024981  -0.029505
    16  C    0.069161  -0.118224   0.511932   5.571852   0.385721   0.394102
    17  H   -0.000170   0.001119  -0.024981   0.385721   0.530417  -0.031507
    18  H   -0.001566  -0.000785  -0.029505   0.394102  -0.031507   0.530255
    19  H    0.000528  -0.001266  -0.086900   0.416562  -0.018057  -0.027409
    20  O   -0.000445  -0.000533   0.005472   0.000001   0.000597  -0.000912
    21  H   -0.000073   0.000013  -0.001530  -0.001544  -0.000002   0.000001
    22  C   -0.041613   0.035666  -0.942766  -0.196195   0.087870  -0.043920
    23  O    0.000368   0.000193   0.022548   0.008846  -0.001552   0.000406
    24  N   -0.028703   0.000879  -0.264477  -0.120142   0.010512  -0.001605
    25  H   -0.000320  -0.000255   0.008174  -0.008446  -0.000976   0.000080
    26  C   -0.032948   0.004433  -0.337582  -0.119503   0.037112  -0.006144
    27  N    0.000168  -0.000140  -0.009148  -0.005948  -0.000355   0.000022
    28  C    0.000495  -0.000459   0.059053   0.012845   0.001280  -0.000190
    29  C   -0.002884   0.000486  -0.071240  -0.031302  -0.001832   0.000312
    30  C    0.000058  -0.000012   0.005504   0.001554   0.000005  -0.000003
    31  H    0.000000  -0.000000   0.000001   0.000001   0.000000  -0.000000
    32  H    0.000000  -0.000000  -0.000000  -0.000001   0.000000  -0.000000
    33  H   -0.000000   0.000000  -0.000001   0.000001  -0.000000  -0.000000
    34  O   -0.000023   0.000001  -0.000638  -0.000176   0.000027   0.000000
    35  H   -0.000001   0.000000   0.000093  -0.000060   0.000000  -0.000000
    36  O    0.000103   0.000039   0.000732   0.000398   0.000012  -0.000154
    37  H    0.000015   0.000003   0.000357   0.000108  -0.000000   0.000003
              19         20         21         22         23         24
     1  C    0.014925  -0.197726   0.009922  -1.030856   0.015295  -0.196292
     2  C   -0.000223   0.063848   0.004175   0.235403  -0.001725  -0.036859
     3  C    0.000824  -0.001447   0.000435  -0.153119   0.001116  -0.011460
     4  C    0.000184  -0.082821   0.008144  -0.453407   0.001126   0.018623
     5  C    0.000180  -0.175839   0.057138  -0.582084   0.007848   0.065631
     6  C   -0.005506  -0.677464   0.107322  -4.235418   0.085768  -0.082320
     7  H    0.000001   0.000008  -0.000000  -0.000873  -0.000000  -0.000031
     8  H    0.000000   0.000004   0.000000  -0.000023   0.000000  -0.000000
     9  H   -0.000000   0.000095  -0.000000   0.000056   0.000000   0.000000
    10  C    0.020155  -0.278123   0.174024  -8.308219  -0.024874  -0.231215
    11  C    0.016967   0.822299  -0.256072   8.840669  -0.251349   0.083781
    12  S   -0.002498   0.029529   0.000507   0.111835  -0.011113  -0.051563
    13  O    0.000528  -0.000445  -0.000073  -0.041613   0.000368  -0.028703
    14  O   -0.001266  -0.000533   0.000013   0.035666   0.000193   0.000879
    15  N   -0.086900   0.005472  -0.001530  -0.942766   0.022548  -0.264477
    16  C    0.416562   0.000001  -0.001544  -0.196195   0.008846  -0.120142
    17  H   -0.018057   0.000597  -0.000002   0.087870  -0.001552   0.010512
    18  H   -0.027409  -0.000912   0.000001  -0.043920   0.000406  -0.001605
    19  H    0.482598  -0.000032   0.000000  -0.012530   0.000084  -0.004090
    20  O   -0.000032   8.620055   0.140796   0.365668  -0.031487  -0.009716
    21  H    0.000000   0.140796   0.298176  -0.101115   0.082460   0.009890
    22  C   -0.012530   0.365668  -0.101115  13.246719   0.272823   0.613899
    23  O    0.000084  -0.031487   0.082460   0.272823   8.468393  -0.191786
    24  N   -0.004090  -0.009716   0.009890   0.613899  -0.191786   7.628088
    25  H    0.000005   0.000042  -0.000056  -0.085889   0.008652   0.253183
    26  C   -0.000850  -0.026781   0.016896  -1.462068   0.115389   0.356512
    27  N   -0.000045   0.000087  -0.000036  -0.328578   0.005490  -0.164470
    28  C    0.000180  -0.003777   0.000253  -1.144292   0.100374  -0.318987
    29  C   -0.000250   0.017107  -0.008062   0.900251  -0.042633  -0.020666
    30  C    0.000004   0.000009  -0.000018  -0.225448   0.008824  -0.063234
    31  H   -0.000000   0.000000  -0.000000   0.000324  -0.000002   0.000041
    32  H    0.000000  -0.000000  -0.000000   0.001830  -0.000007  -0.000006
    33  H   -0.000000  -0.000000   0.000000  -0.002036   0.000000   0.000107
    34  O   -0.000002   0.000007  -0.000000   0.077970  -0.001828   0.044026
    35  H    0.000000  -0.000092   0.000043   0.031721  -0.007834  -0.001407
    36  O    0.000002   0.016288  -0.001148   0.004786  -0.000841  -0.000501
    37  H   -0.000000  -0.002155  -0.000744  -0.003571  -0.000529  -0.000119
              25         26         27         28         29         30
     1  C   -0.003780  -0.137096  -0.003122  -0.016444  -0.024028  -0.001281
     2  C   -0.001745  -0.013779  -0.000615   0.000314   0.001448  -0.000035
     3  C   -0.000246  -0.007738  -0.000042  -0.000043  -0.001084  -0.000002
     4  C    0.000188   0.005315   0.000220   0.000751  -0.000276   0.000041
     5  C    0.000659   0.043447   0.002066   0.009951  -0.000026   0.000605
     6  C    0.009423  -0.283078   0.003287  -0.003523  -0.055884  -0.002162
     7  H   -0.000000   0.000024  -0.000000   0.000000  -0.000001   0.000000
     8  H   -0.000000  -0.000000  -0.000000   0.000000  -0.000000   0.000000
     9  H   -0.000000  -0.000001   0.000000   0.000000   0.000000  -0.000000
    10  C    0.033258  -1.257603   0.030727   0.018258  -0.512467  -0.012670
    11  C   -0.005692   0.111617  -0.072048  -0.300419   0.211193  -0.039073
    12  S   -0.006360  -0.040513  -0.001444   0.020614  -0.024437   0.001259
    13  O   -0.000320  -0.032948   0.000168   0.000495  -0.002884   0.000058
    14  O   -0.000255   0.004433  -0.000140  -0.000459   0.000486  -0.000012
    15  N    0.008174  -0.337582  -0.009148   0.059053  -0.071240   0.005504
    16  C   -0.008446  -0.119503  -0.005948   0.012845  -0.031302   0.001554
    17  H   -0.000976   0.037112  -0.000355   0.001280  -0.001832   0.000005
    18  H    0.000080  -0.006144   0.000022  -0.000190   0.000312  -0.000003
    19  H    0.000005  -0.000850  -0.000045   0.000180  -0.000250   0.000004
    20  O    0.000042  -0.026781   0.000087  -0.003777   0.017107   0.000009
    21  H   -0.000056   0.016896  -0.000036   0.000253  -0.008062  -0.000018
    22  C   -0.085889  -1.462068  -0.328578  -1.144292   0.900251  -0.225448
    23  O    0.008652   0.115389   0.005490   0.100374  -0.042633   0.008824
    24  N    0.253183   0.356512  -0.164470  -0.318987  -0.020666  -0.063234
    25  H    0.369407   0.022505   0.018226   0.050203  -0.008083   0.003648
    26  C    0.022505  13.635427  -0.740017   0.286416  -2.174064  -2.284336
    27  N    0.018226  -0.740017   7.555312   0.754816  -0.342830   0.789053
    28  C    0.050203   0.286416   0.754816  12.393088  -5.541415   0.054699
    29  C   -0.008083  -2.174064  -0.342830  -5.541415  15.176685  -2.287754
    30  C    0.003648  -2.284336   0.789053   0.054699  -2.287754   9.711487
    31  H   -0.000000  -0.009646  -0.000511  -0.095613   0.036781   0.427335
    32  H   -0.000000  -0.009282  -0.001040  -0.109109   0.044283   0.431402
    33  H    0.000000   0.022329  -0.003423  -0.027514   0.004528   0.356385
    34  O   -0.002277  -0.078225   0.054289   0.142037   0.099750  -0.234290
    35  H   -0.000108   0.155505  -0.009762  -0.000363   0.196435  -0.045988
    36  O   -0.000000  -0.000883  -0.000000  -0.000034   0.000055  -0.000000
    37  H   -0.000000  -0.000503   0.000000  -0.000016  -0.000057  -0.000000
              31         32         33         34         35         36
     1  C    0.000000  -0.000000  -0.000000   0.000312   0.000161   0.108493
     2  C    0.000000  -0.000000   0.000000   0.000046  -0.000005  -0.036273
     3  C    0.000000  -0.000000  -0.000000   0.000001   0.000001   0.028227
     4  C   -0.000000   0.000000  -0.000000  -0.000006  -0.000004  -0.670014
     5  C   -0.000000   0.000000  -0.000000  -0.000121  -0.000118   0.250111
     6  C   -0.000001   0.000000   0.000002   0.000556   0.000013   0.237671
     7  H    0.000000   0.000000  -0.000000  -0.000000   0.000000   0.000129
     8  H    0.000000   0.000000   0.000000   0.000000   0.000000  -0.000448
     9  H    0.000000  -0.000000  -0.000000  -0.000000  -0.000000  -0.006876
    10  C   -0.000050   0.000044  -0.000009   0.001410   0.001447   0.044933
    11  C   -0.000117  -0.000026   0.000184   0.019466  -0.001953   0.005435
    12  S    0.000000  -0.000000   0.000000   0.000350   0.000002  -0.001098
    13  O    0.000000   0.000000  -0.000000  -0.000023  -0.000001   0.000103
    14  O   -0.000000  -0.000000   0.000000   0.000001   0.000000   0.000039
    15  N    0.000001  -0.000000  -0.000001  -0.000638   0.000093   0.000732
    16  C    0.000001  -0.000001   0.000001  -0.000176  -0.000060   0.000398
    17  H    0.000000   0.000000  -0.000000   0.000027   0.000000   0.000012
    18  H   -0.000000  -0.000000  -0.000000   0.000000  -0.000000  -0.000154
    19  H   -0.000000   0.000000  -0.000000  -0.000002   0.000000   0.000002
    20  O    0.000000  -0.000000  -0.000000   0.000007  -0.000092   0.016288
    21  H   -0.000000  -0.000000   0.000000  -0.000000   0.000043  -0.001148
    22  C    0.000324   0.001830  -0.002036   0.077970   0.031721   0.004786
    23  O   -0.000002  -0.000007   0.000000  -0.001828  -0.007834  -0.000841
    24  N    0.000041  -0.000006   0.000107   0.044026  -0.001407  -0.000501
    25  H   -0.000000  -0.000000   0.000000  -0.002277  -0.000108  -0.000000
    26  C   -0.009646  -0.009282   0.022329  -0.078225   0.155505  -0.000883
    27  N   -0.000511  -0.001040  -0.003423   0.054289  -0.009762  -0.000000
    28  C   -0.095613  -0.109109  -0.027514   0.142037  -0.000363  -0.000034
    29  C    0.036781   0.044283   0.004528   0.099750   0.196435   0.000055
    30  C    0.427335   0.431402   0.356385  -0.234290  -0.045988  -0.000000
    31  H    0.501692  -0.024948  -0.022798  -0.004934   0.000029   0.000000
    32  H   -0.024948   0.500245  -0.022600  -0.004736   0.000030  -0.000000
    33  H   -0.022798  -0.022600   0.508251   0.008209   0.000110  -0.000000
    34  O   -0.004934  -0.004736   0.008209   7.758974   0.009261   0.000000
    35  H    0.000029   0.000030   0.000110   0.009261   0.482945  -0.000000
    36  O    0.000000  -0.000000  -0.000000   0.000000  -0.000000   8.379628
    37  H   -0.000000   0.000000  -0.000000  -0.000000  -0.000000   0.204979
              37
     1  C   -0.038142
     2  C   -0.002013
     3  C   -0.007437
     4  C    0.158922
     5  C    0.071075
     6  C   -0.175146
     7  H   -0.000000
     8  H    0.000002
     9  H   -0.000025
    10  C    0.000834
    11  C    0.012521
    12  S    0.002573
    13  O    0.000015
    14  O    0.000003
    15  N    0.000357
    16  C    0.000108
    17  H   -0.000000
    18  H    0.000003
    19  H   -0.000000
    20  O   -0.002155
    21  H   -0.000744
    22  C   -0.003571
    23  O   -0.000529
    24  N   -0.000119
    25  H   -0.000000
    26  C   -0.000503
    27  N    0.000000
    28  C   -0.000016
    29  C   -0.000057
    30  C   -0.000000
    31  H   -0.000000
    32  H    0.000000
    33  H   -0.000000
    34  O   -0.000000
    35  H   -0.000000
    36  O    0.204979
    37  H    0.342863
 Mulliken charges:
               1
     1  C   -2.066566
     2  C    0.247903
     3  C   -0.045767
     4  C    0.750478
     5  C   -0.280520
     6  C    1.194748
     7  H    0.185489
     8  H    0.171493
     9  H    0.176017
    10  C    0.232344
    11  C   -0.494476
    12  S    1.280235
    13  O   -0.407088
    14  O   -0.494779
    15  N   -0.636271
    16  C   -0.124629
    17  H    0.172779
    18  H    0.175344
    19  H    0.206460
    20  O   -0.592566
    21  H    0.460205
    22  C    0.526534
    23  O   -0.638444
    24  N   -0.285522
    25  H    0.346580
    26  C    0.209713
    27  N   -0.530190
    28  C   -0.343428
    29  C    0.461962
    30  C   -0.595564
    31  H    0.192416
    32  H    0.193921
    33  H    0.178276
    34  O    0.110563
    35  H    0.189899
    36  O   -0.563749
    37  H    0.436202
 Sum of Mulliken charges =  -0.00000
 Mulliken charges with hydrogens summed into heavy atoms:
               1
     1  C   -2.066566
     2  C    0.433392
     3  C    0.125726
     4  C    0.926495
     5  C   -0.280520
     6  C    1.194748
    10  C    0.232344
    11  C   -0.494476
    12  S    1.280235
    13  O   -0.407088
    14  O   -0.494779
    15  N   -0.636271
    16  C    0.429954
    20  O   -0.132361
    22  C    0.526534
    23  O   -0.638444
    24  N    0.061058
    26  C    0.209713
    27  N   -0.530190
    28  C   -0.343428
    29  C    0.651861
    30  C   -0.030951
    34  O    0.110563
    36  O   -0.127548
 Electronic spatial extent (au):  <R**2>=           9890.9801
 Charge=             -0.0000 electrons
 Dipole moment (field-independent basis, Debye):
    X=             -0.2114    Y=              3.1433    Z=              2.8477  Tot=              4.2467
 Quadrupole moment (field-independent basis, Debye-Ang):
   XX=           -113.1796   YY=           -161.1724   ZZ=           -148.4982
   XY=             14.5214   XZ=             -3.7755   YZ=             -4.7621
 Traceless Quadrupole moment (field-independent basis, Debye-Ang):
   XX=             27.7704   YY=            -20.2224   ZZ=             -7.5481
   XY=             14.5214   XZ=             -3.7755   YZ=             -4.7621
 Octapole moment (field-independent basis, Debye-Ang**2):
  XXX=             28.5381  YYY=             24.7465  ZZZ=             13.3163  XYY=             31.3392
  XXY=             69.3796  XXZ=            -15.1971  XZZ=             17.8067  YZZ=             -0.4423
  YYZ=              2.7297  XYZ=              1.2098
 Hexadecapole moment (field-independent basis, Debye-Ang**3):
 XXXX=          -8309.9355 YYYY=          -2299.1679 ZZZZ=           -497.5553 XXXY=            553.3190
 XXXZ=            -80.3524 YYYX=             73.4903 YYYZ=            -10.0012 ZZZX=            -10.2516
 ZZZY=            -25.8529 XXYY=          -2245.2537 XXZZ=          -1877.7035 YYZZ=           -450.3175
 XXYZ=             10.6695 YYXZ=              0.4367 ZZXY=             -6.3051
 N-N= 2.302034225544D+03 E-N=-8.243623466408D+03  KE= 1.541416223743D+03
 Calling FoFJK, ICntrl=      2127 FMM=F ISym2X=0 I1Cent= 0 IOpClX= 0 NMat=1 NMatS=1 NMatT=0.
 ***** Axes restored to original set *****
 -------------------------------------------------------------------
 Center     Atomic                   Forces (Hartrees/Bohr)
 Number     Number              X              Y              Z
 -------------------------------------------------------------------
      1        6          -0.005443491   -0.000298078    0.000576343
      2        6           0.003572617   -0.005196114   -0.000724075
      3        6           0.005468479    0.005788718    0.000273795
      4        6          -0.007769593    0.003299924    0.001071572
      5        6           0.027536646    0.055712416    0.004073145
      6        6           0.010592795   -0.003179976   -0.001430026
      7        1           0.000180185    0.000232887    0.000009690
      8        1           0.000206787    0.001115299    0.000012456
      9        1           0.002086225    0.001597869    0.000102064
     10        6          -0.008007056   -0.019198397    0.003314946
     11        6          -0.000003371    0.001472949   -0.000420855
     12       16          -0.001813679   -0.001006245   -0.000873710
     13        8           0.000362559    0.000410973    0.000424495
     14        8           0.000666818    0.000989790   -0.000147516
     15        7           0.000226194    0.001507296   -0.000369801
     16        6           0.000064984    0.000407862    0.000618303
     17        1           0.000015112   -0.000096055    0.000065295
     18        1           0.000022691   -0.000130423   -0.000068527
     19        1          -0.000000188    0.000078053   -0.000169340
     20        8           0.022845663    0.001423134   -0.005980789
     21        1           0.004819193    0.000524427   -0.000098290
     22        6           0.001473299   -0.002677771   -0.000104047
     23        8          -0.001930160    0.002488561   -0.000273214
     24        7          -0.001660506    0.001328841   -0.000015764
     25        1          -0.000099715   -0.000134143    0.000032083
     26        6           0.001096438    0.000197652   -0.000021032
     27        7           0.000150409    0.000036591   -0.000009467
     28        6           0.000333020   -0.000109382   -0.000030755
     29        6          -0.000398345    0.000017083    0.000021272
     30        6          -0.000024532    0.000016465   -0.000007042
     31        1          -0.000028045   -0.000011409   -0.000012875
     32        1          -0.000023488   -0.000012059    0.000013855
     33        1           0.000011505   -0.000022485    0.000000632
     34        8          -0.000666077    0.000092716    0.000028532
     35        1           0.000292666   -0.000122432    0.000003694
     36        8          -0.061613739   -0.046901673    0.002912982
     37        1           0.007457698    0.000357135   -0.002798030
 -------------------------------------------------------------------
 Cartesian Forces:  Max     0.061613739 RMS     0.010112445

 GradGradGradGradGradGradGradGradGradGradGradGradGradGradGradGradGradGrad
 Berny optimization.
 FormGI is forming the generalized inverse of G from B-inverse, IUseBI=4.
 Internal  Forces:  Max     0.060981138 RMS     0.009338697
 Search for a local minimum.
 Step number   1 out of a maximum of  202
 All quantities printed in internal units (Hartrees-Bohrs-Radians)
 Mixed Optimization -- RFO/linear search
 Second derivative matrix not updated -- first step.
 ITU=  0
     Eigenvalues ---    0.00717   0.01051   0.01281   0.01295   0.01300
     Eigenvalues ---    0.01520   0.01635   0.01699   0.01734   0.01735
     Eigenvalues ---    0.01832   0.01875   0.01977   0.02016   0.02026
     Eigenvalues ---    0.02046   0.02107   0.02141   0.02179   0.02182
     Eigenvalues ---    0.02182   0.02198   0.02205   0.02233   0.02329
     Eigenvalues ---    0.02423   0.02673   0.03638   0.07234   0.07464
     Eigenvalues ---    0.07492   0.07693   0.09602   0.11594   0.11656
     Eigenvalues ---    0.12510   0.15962   0.15999   0.16000   0.16000
     Eigenvalues ---    0.16000   0.16000   0.16000   0.16000   0.16000
     Eigenvalues ---    0.16000   0.16000   0.16000   0.16000   0.18339
     Eigenvalues ---    0.19864   0.22014   0.22099   0.23368   0.23816
     Eigenvalues ---    0.23818   0.24899   0.24979   0.24996   0.24999
     Eigenvalues ---    0.25000   0.25000   0.25000   0.25000   0.25000
     Eigenvalues ---    0.25000   0.27380   0.33675   0.34195   0.34196
     Eigenvalues ---    0.34323   0.34414   0.34520   0.34651   0.34751
     Eigenvalues ---    0.35130   0.35176   0.35190   0.35301   0.36156
     Eigenvalues ---    0.36181   0.36830   0.38448   0.40244   0.40989
     Eigenvalues ---    0.41271   0.42810   0.44915   0.45448   0.46057
     Eigenvalues ---    0.46468   0.46963   0.47707   0.47989   0.48678
     Eigenvalues ---    0.49218   0.50084   0.52315   0.53840   0.55473
     Eigenvalues ---    0.60502   0.60977   0.86519   0.94413   0.95688
 RFO step:  Lambda=-4.92601212D-02 EMin= 7.16842553D-03
 Linear search not attempted -- first point.
 Maximum step size (   0.300) exceeded in Quadratic search.
    -- Step size scaled by   0.791
 Iteration  1 RMS(Cart)=  0.09707832 RMS(Int)=  0.00486696
 Iteration  2 RMS(Cart)=  0.00632333 RMS(Int)=  0.00022757
 Iteration  3 RMS(Cart)=  0.00002273 RMS(Int)=  0.00022703
 Iteration  4 RMS(Cart)=  0.00000001 RMS(Int)=  0.00022703
 Variable       Old X    -DE/DX   Delta X   Delta X   Delta X     New X
                                 (Linear)    (Quad)   (Total)
    R1        2.61961  -0.00442   0.00000  -0.00685  -0.00682   2.61279
    R2        2.65159   0.01375   0.00000   0.02515   0.02551   2.67711
    R3        3.36310  -0.00082   0.00000  -0.00121  -0.00115   3.36195
    R4        2.63131  -0.00422   0.00000  -0.00884  -0.00896   2.62235
[...]
 00000003,0.00000009,0.00000020,0.00000013,0.,-0.00000025,-0.00000012,0
 .00000009,-0.00001267,-0.00004943,0.00001220,-0.00001776,0.00002992,-0
 .00000525,0.00000131,-0.00000744,0.00000217,0.,0.00000342,-0.00000194,
 0.00000076,0.00000588,-0.00000185,0.00001033,0.00001450,-0.00000069,0.
 00000218,0.00000110,0.00000276,0.00000056,-0.00000352,-0.00000216,-0.0
 0000211,-0.00000015,-0.00000120,0.00000190,0.00000090,-0.00000085,0.00
 003516,0.00003858,-0.00000895,-0.00003861,-0.00000250,-0.00000090,0.00
 000703,-0.00039515,0.00003503,0.00016791,0.00021890,-0.00002365,-0.000
 24315,0.00046043,-0.00002568,0.00010718,-0.00004192,-0.00000017,0.0006
 9799,-0.00073928,0.00000066,-0.00052710,-0.00124077,0.00017875,0.00518
 459,-0.03219880,0.00206788,0.00108755,0.00097938,-0.00013508,-0.047204
 49,0.01322097,-0.00087290,-0.00052276,0.01671985,0.00087503,-0.0008577
 6,0.01371207,-0.00298113,0.04972614,0.00000599,0.00001474,-0.00000745,
 -0.00002314,0.00001025,0.00000452,0.00000088,-0.00002045,-0.00000201,0
 .00001255,0.00000941,-0.00000196,-0.00001244,-0.00004346,-0.00000202,-
 0.00002162,-0.00000132,0.00000123,0.00000049,-0.00000057,0.00000064,-0
 .00000150,-0.00000056,0.00000013,-0.00000153,0.00000068,0.00000047,0.0
 0004050,-0.00011041,0.00002377,-0.00010606,0.00006072,-0.00001166,0.00
 004904,0.00002465,0.00003042,-0.00001276,-0.00000212,-0.00001108,-0.00
 001480,-0.00000988,-0.00000255,-0.00003463,-0.00000112,-0.00000496,0.0
 0000800,-0.00000111,-0.00000587,0.00000181,-0.00000308,-0.00000700,-0.
 00000500,0.00000241,-0.00000127,0.00000298,0.00000002,-0.00000022,-0.0
 0001174,0.00008226,-0.00002082,0.00002389,-0.00002959,0.00000684,0.000
 19853,-0.00038905,0.00003201,-0.00001026,0.00022310,-0.00002018,-0.000
 37401,0.00035743,-0.00001801,0.00006705,0.00000612,-0.00000017,0.00035
 156,-0.00057039,0.00000414,0.00031171,0.00013460,0.00004251,0.00377863
 ,-0.01087018,0.00043812,0.00052452,0.00108706,-0.00012627,0.00886651,-
 0.32200286,0.02084100,-0.00054013,-0.00481262,-0.00101921,-0.00052893,
 -0.00850217,0.00230583,-0.00903913,0.34503454,-0.00000175,-0.00000151,
 -0.00000254,0.00000163,-0.00000135,-0.00000046,-0.00000017,0.00000211,
 -0.00000016,-0.00000163,-0.00000133,-0.00000052,0.00000205,0.00000625,
 0.00000183,0.00000265,-0.00000076,-0.00000176,-0.00000010,-0.00000003,
 0.00000055,0.00000016,0.,0.00000047,0.00000028,-0.00000014,0.00000084,
 -0.00000148,0.00000411,0.00000363,0.00000604,-0.00000504,0.00000436,-0
 .00000475,0.00000184,0.00002666,0.00000641,0.00000084,-0.00001566,0.00
 000149,0.00000117,-0.00000711,-0.00000078,-0.00000065,-0.00000966,0.00
 000055,-0.00000093,0.00000899,-0.00000172,0.00000162,0.00000090,0.0000
 0242,-0.00000010,-0.00000064,0.00000017,0.00000045,-0.00000062,0.00000
 137,-0.00000362,-0.00001053,-0.00000087,0.00000278,0.00001784,-0.00001
 319,0.00004810,0.00000936,-0.00000970,-0.00003055,-0.00004772,0.000036
 48,-0.00005777,-0.00007274,-0.00001261,0.00000271,0.00001304,-0.000073
 63,0.00005214,-0.00037695,0.00003827,0.00012501,0.00086580,-0.00067875
 ,0.00235382,-0.00281265,-0.00012094,-0.00016281,-0.00025645,-0.0005472
 3,0.02062609,-0.04535661,0.00096629,0.02480028,-0.00056493,-0.00065661
 ,-0.02522997,0.00333788,0.00031878,-0.02270029,0.04423282,0.00026863,0
 .00052162,-0.00024906,-0.00081165,0.00022859,0.00015508,0.00000438,-0.
 00064787,-0.00006161,0.00034712,0.00021148,-0.00007049,-0.00027262,-0.
 00111760,-0.00003114,-0.00074144,-0.00011872,0.00004799,-0.00002247,-0
 .00000684,0.00001394,-0.00004222,-0.00002252,0.00000098,-0.00004515,0.
 00002095,0.00000890,0.00156553,-0.00366609,0.00077866,-0.00404298,0.00
 297210,-0.00059328,0.00089407,0.00196257,0.00112784,-0.00006424,-0.000
 47616,-0.00050039,-0.00031438,-0.00092303,0.00001062,-0.00074945,-0.00
 061133,-0.00002816,0.00005441,-0.00000810,-0.00040901,0.00001132,0.000
 12535,-0.00017876,-0.00007382,0.00002046,0.00001957,-0.00007961,-0.000
 06152,0.00003595,-0.00054553,0.00234093,-0.00058362,0.00089645,-0.0006
 9796,0.00012222,0.00589142,-0.01626441,0.00147070,0.00118963,0.0064598
 5,-0.00045432,-0.02090290,0.01570166,0.00041040,0.00063421,0.00154696,
 -0.00026761,-0.08340563,0.02466153,0.00247384,-0.20568220,0.03993654,0
 .00389762,-0.10676785,-0.00942475,0.00286441,-0.01668217,0.01070561,0.
 00034622,0.00094632,-0.04505288,0.00352319,0.00308757,0.00153303,-0.00
 027252,0.00297170,0.00151118,-0.00022041,-0.00724318,-0.00303382,0.000
 67114,0.43397269,0.00002043,0.00003413,-0.00002537,-0.00007705,0.00005
 209,0.00002113,-0.00000616,-0.00009354,-0.00000861,0.00007878,0.000063
 43,-0.00002063,-0.00011318,-0.00027171,-0.00001041,-0.00000380,0.00003
 534,0.00006584,0.00000503,-0.00000321,0.00000329,-0.00000308,-0.000001
 43,0.00000050,-0.00000749,0.00000179,0.00000289,0.00000065,-0.00093200
 ,0.00013278,-0.00039544,0.00020148,-0.00015794,0.00017586,-0.00011467,
 0.00002941,-0.00005627,0.00006786,-0.00002084,-0.00003458,0.00010532,-
 0.00002479,0.00006818,0.00026531,0.00001224,0.00004277,0.00001575,0.00
 003411,0.00000214,-0.00007885,-0.00004649,-0.00004796,0.00000811,-0.00
 002331,0.00005254,0.00001527,-0.00001463,0.00049199,0.00079238,-0.0001
 6864,-0.00049377,0.00001603,-0.00004351,0.00140214,-0.00845581,0.00105
 772,0.00284051,0.00533108,-0.00058285,-0.00646425,0.00370702,0.0006780
 6,0.00178600,-0.00111578,-0.00006350,0.02877708,-0.04748079,0.00284348
 ,-0.08697565,-0.06794039,0.00523402,0.02370170,-0.28185020,0.01646805,
 0.06407731,-0.07059850,0.00358701,-0.00808470,-0.02286699,0.00206983,0
 .00214803,0.00131338,0.00025471,0.00206962,0.00119865,-0.00059657,-0.0
 0211641,0.00042308,0.00014931,-0.02742393,0.48681502,-0.00002341,-0.00
 003275,0.00003113,0.00007948,-0.00002141,-0.00002758,0.00000031,0.0000
 6908,0.00000371,-0.00004967,-0.00001613,0.00000700,0.00002229,0.000091
 22,-0.00000254,0.00001791,0.00007912,0.00013516,0.00000199,0.00000054,
 -0.00000263,0.00000237,0.00000181,0.00000273,0.00000164,-0.00000209,0.
 00000004,-0.00016734,0.00027361,-0.00026200,0.00029366,-0.00021674,-0.
 00088558,0.00000883,-0.00014371,-0.00017124,-0.00004710,0.00003889,0.0
 0009582,0.00000823,0.00005149,0.00003102,0.00004190,0.00004316,0.00014
 160,-0.00001877,-0.00000574,-0.00003679,-0.00000569,0.00001816,0.00002
 791,0.00001173,-0.00000546,0.00001799,-0.00001007,-0.00000525,0.000001
 82,-0.00004555,-0.00026739,0.00005824,0.00005115,0.00000946,-0.0000624
 6,-0.00044736,0.00172598,0.00322645,-0.00028408,-0.00080263,-0.0005420
 1,0.00238316,-0.00049883,0.00904668,-0.00008908,0.00003602,-0.00163962
 ,0.00150756,0.00322902,0.00547996,0.01451396,-0.00114761,-0.05952837,0
 .00009161,0.01771776,-0.06858135,-0.00374444,0.00648628,0.01461107,0.0
 0056854,0.00403299,-0.00141964,-0.00003520,0.00012098,0.00036361,-0.00
 054280,-0.00040825,0.00047525,0.00057292,0.00016753,0.00064160,-0.0149
 4445,-0.03131007,0.09019613,-0.00003218,-0.00007900,0.00002161,0.00009
 608,-0.00002080,-0.00001191,-0.00000246,0.00006975,0.00000780,-0.00002
 939,-0.00001310,0.00000758,-0.00000145,0.00008852,-0.00000610,0.000109
 87,0.00005804,0.00000227,0.00000381,0.00000092,-0.00000146,0.00000606,
 0.00000310,-0.00000084,0.00000459,-0.00000299,-0.00000062,-0.00035384,
 0.00004812,-0.00002021,0.00030136,0.00018342,-0.00000194,-0.00012246,-
 0.00022818,-0.00016294,0.00001048,0.00006881,0.00006604,0.00005991,0.0
 0014061,0.00000131,0.00021640,0.00020974,-0.00000008,0.00001774,0.0000
 1975,0.00007864,-0.00000368,-0.00002508,0.00000724,-0.00000155,-0.0000
 0854,-0.00000964,0.00001125,0.00001310,-0.00001115,0.00046428,-0.00001
 364,0.00002207,-0.00063348,0.00024025,-0.00005894,-0.00078610,-0.00496
 500,0.00048363,-0.00177185,0.00385831,-0.00028656,-0.00083812,0.002595
 98,-0.00024582,-0.00008196,-0.00010364,-0.00000521,0.01187259,-0.01780
 498,0.00092402,-0.00323190,-0.00565067,0.00080983,0.00301836,0.0222928
 1,-0.00223188,-0.06945799,0.07762245,-0.00454119,0.00104144,-0.0000709
 1,-0.00017325,0.00011735,-0.00010300,0.00001857,0.00014608,-0.00012163
 ,0.00000091,-0.00035945,-0.00048404,0.00007135,-0.00458891,0.00451956,
 0.00030119,0.06484675,-0.00000567,-0.00001426,0.00000413,0.00001955,-0
 .00000976,-0.00000237,-0.00000029,0.00001838,0.00000078,-0.00001312,-0
 .00001040,0.00000339,0.00001282,0.00005537,0.00000375,0.00001975,0.000
 00460,-0.00000825,-0.00000009,0.00000030,-0.00000050,0.00000089,0.0000
 0037,-0.00000009,0.00000198,-0.00000017,-0.00000023,-0.00007732,0.0000
 6367,-0.00001239,0.00011804,0.00005388,0.00000810,-0.00003573,-0.00002
 531,-0.00000371,0.00001384,0.00000780,-0.00000344,0.00001445,0.0000213
 9,-0.00000357,0.00003892,0.00002663,0.00000803,-0.00000714,0.00000165,
 0.00000524,-0.00000045,-0.00000735,0.00000223,0.00000156,-0.00000045,-
 0.00000111,0.00000346,0.00000144,-0.00000055,0.00021706,-0.00013002,0.
 00002818,-0.00015288,0.00023064,-0.00003185,-0.00091984,-0.00094063,0.
 00017820,0.00315616,-0.00049235,-0.00013592,0.00002074,0.00063524,-0.0
 0018777,0.00000576,-0.00011851,-0.00000565,0.00954390,-0.00884639,0.00
 009641,-0.00057327,-0.00231224,0.00061174,-0.00340162,-0.00065468,-0.0
 0005348,0.07528944,-0.34768119,0.02389194,0.00000527,0.00024244,-0.000
 29227,-0.00004424,0.00001633,-0.00000259,0.00003627,-0.00001504,0.0000
 3333,0.00042423,-0.00012338,0.00002189,-0.00138040,0.00115560,0.000751
 83,-0.08232529,0.35886847,-0.00000604,-0.00000314,-0.00002025,-0.00000
 979,-0.00000005,0.00000352,0.00000094,-0.00000577,0.00000200,0.0000026
 3,-0.00000012,-0.00000350,0.00000139,0.00000787,0.00001427,0.00001293,
 -0.00001293,-0.00004286,-0.00000018,-0.00000036,0.00000266,-0.00000018
 ,-0.00000039,-0.00000001,0.00000046,-0.00000020,0.00000290,0.00002117,
 -0.00004189,0.00002322,-0.00000672,0.00002075,0.00033290,-0.00000718,0
 .00003810,0.00015897,0.00003662,0.00000219,-0.00008982,0.00000274,-0.0
 0000567,-0.00003930,-0.00002844,-0.00000416,-0.00004136,0.00001363,-0.
 00001162,0.00005022,-0.00000637,0.00001209,-0.00000070,0.00000923,0.00
 000228,-0.00000654,0.00000008,0.00000123,-0.00000430,-0.00002183,0.000
 03745,-0.00007955,0.00001685,-0.00002014,0.00017301,0.00011156,0.00034
 131,0.00041489,-0.00022792,-0.00021544,-0.00116634,-0.00002657,-0.0003
 2311,-0.00151425,-0.00001182,0.00001988,-0.00012189,-0.00138451,0.0013
 4506,-0.00265059,0.00039105,0.00081760,0.00486724,0.00001135,-0.001433
 25,-0.00289817,-0.00444515,0.02406933,-0.02668721,-0.00021630,-0.00025
 959,-0.00310337,-0.00044786,0.00019353,0.00018364,0.00046215,-0.000166
 18,0.00016721,-0.00000399,0.00006039,0.00037038,0.00081564,0.00043914,
 0.00857402,0.00494283,-0.02490069,0.02312410,-0.01078324,-0.00546671,0
 .00143679,0.00977370,-0.00484387,-0.00133010,-0.00838159,0.01277765,0.
 00232260,-0.02127713,-0.06542846,-0.00534320,-0.11699517,-0.06895464,0
 .00016521,0.01930744,0.02671638,0.00195543,0.00035519,-0.00000501,-0.0
 0019920,-0.00055643,-0.00173775,-0.00014982,0.00267718,0.00029191,-0.0
 0032361,-0.00738072,-0.01397537,0.00229821,0.00226124,0.00183195,-0.00
 039277,-0.00298401,0.00134222,-0.00010313,0.00083388,-0.00008281,-0.00
 030050,0.00069626,0.00019754,-0.00018053,0.00085856,0.00069363,0.00046
 934,-0.00010502,0.00035490,-0.00002100,0.00007161,-0.00005199,0.000034
 53,-0.00010956,-0.00012511,-0.00004235,-0.00006182,0.00004120,-0.00006
 087,-0.02001006,0.01504923,0.00295673,0.00468594,0.00262829,0.00135772
 ,-0.00128060,-0.00341302,-0.00009064,-0.00150967,0.00336003,-0.0005087
 4,-0.00000738,0.00095754,-0.00002750,-0.00027898,-0.00002245,0.0000360
 8,0.00013377,-0.00008700,0.00001246,-0.00000603,0.00007718,0.00000715,
 0.00007772,-0.00004571,-0.00000087,-0.00002845,-0.00002969,0.00000399,
 -0.00000182,0.00000239,-0.00000009,-0.00000271,-0.00000327,-0.00000499
 ,-0.00000296,-0.00000100,0.00000558,0.00000697,0.00000303,-0.00000164,
 -0.00006491,0.00009470,-0.00001101,0.00005013,-0.00000300,-0.00000469,
 0.60731668,0.00005337,-0.00262636,-0.00080933,0.00527930,-0.00796792,-
 0.00103232,0.00055611,0.01075070,0.00076723,-0.02902447,-0.03296302,-0
 .00137294,-0.02977935,-0.34402016,-0.03557680,0.00610372,-0.04421978,-
 0.00732189,0.00002899,0.00025532,-0.00004305,-0.00036245,-0.00039502,-
 0.00012752,0.00048332,0.00068248,0.00047012,-0.01728218,-0.00890332,0.
 00268077,0.00709734,0.00023211,0.00026999,-0.00649963,0.00209704,0.001
 07984,0.00179909,-0.00028519,-0.00168622,0.00144160,-0.00222311,0.0002
 8499,0.00123252,0.00054902,0.00086197,-0.00010517,0.00033184,-0.000589
 01,0.00016229,-0.00003097,-0.00000788,-0.00020402,-0.00012367,-0.00004
 149,-0.00018167,-0.00000387,0.00001258,0.00352528,0.01294443,-0.000469
 29,0.00202420,-0.00048020,-0.00034889,-0.00608946,-0.00340185,-0.00029
 626,0.00115904,0.00399104,-0.00035812,0.00228178,-0.00006228,0.0000221
 5,-0.00042274,0.00013067,-0.00004336,-0.00154700,-0.00046906,0.0001879
 9,-0.00012548,0.00005312,0.00002985,-0.00024263,-0.00012485,0.00003399
 ,0.00047146,0.00001822,-0.00001817,0.00003274,-0.00003594,-0.00000273,
 0.00004011,0.00000181,0.00000836,0.00003715,0.00000340,-0.00001162,0.0
 0000896,0.00003699,-0.00000542,0.00083341,0.00024250,-0.00008434,-0.00
 006481,-0.00005075,-0.00000433,0.13450002,0.47130057,0.00049376,-0.000
 83833,0.00660925,0.00020239,-0.00077005,-0.00167666,0.00155335,0.00056
 922,0.00486652,-0.00188491,0.00093657,0.00789696,0.00673967,-0.0267623
 2,-0.04892206,0.00026961,-0.00759207,0.00734927,-0.00007090,0.00011406
 ,-0.00045006,0.00002734,0.00023238,-0.00016330,-0.00045973,0.00039285,
 -0.00321903,-0.00123439,0.00053368,-0.00344561,0.00070042,-0.00057031,
 0.00016596,-0.00036002,-0.00009732,0.00026290,-0.00010250,-0.00017850,
 0.00010034,0.00019743,-0.00037706,-0.00019537,0.00016465,0.00044496,0.
 00049070,0.00001270,0.00000667,-0.00026078,0.00003490,-0.00003098,-0.0
 0001103,-0.00006802,-0.00003653,0.00003031,-0.00005454,-0.00000742,0.0
 0004483,0.00469732,0.00041483,0.00289392,-0.00063577,-0.00079687,0.000
 07620,-0.00070331,-0.00001487,-0.00042921,0.00059537,0.00000425,0.0001
 9775,0.00032728,-0.00013800,0.00005239,-0.00001806,0.00001787,-0.00003
 005,-0.00022214,-0.00006647,0.00003529,-0.00002791,0.00000110,0.000014
 66,-0.00004085,-0.00001824,-0.00000549,0.00006800,0.00000954,0.0000280
 7,0.00000467,-0.00000544,0.00000115,0.00000829,-0.00000196,0.00000179,
 0.00000390,0.00000331,-0.00000200,0.00000041,0.00000448,-0.00000578,0.
 00013742,0.00002761,-0.00000893,-0.00001578,-0.00000832,-0.00002203,-0
 .08194164,0.03315682,0.05240380,0.00006373,0.00209919,-0.00033627,-0.0
 0261439,0.00228710,0.00046106,0.00011040,-0.00367928,-0.00018764,0.005
 90895,0.00386065,0.00025321,-0.01173902,-0.01611441,-0.00106879,-0.002
 83965,0.00337631,0.00093281,-0.00007220,-0.00005461,0.00003039,0.00013
 643,0.00007458,-0.00000830,-0.00005375,-0.00008937,-0.00006820,0.01126
 628,0.01638985,-0.00339277,-0.00091371,-0.00215499,0.00057728,0.004233
 65,-0.00023242,0.00072288,-0.00110496,0.00002962,0.00018661,-0.0010383
 1,0.00033698,-0.00010992,-0.00095654,-0.00133532,0.00013986,-0.0000515
 1,-0.00052037,-0.00036981,-0.00006262,0.00008296,-0.00008737,0.0000215
 1,0.00011983,0.00010057,0.00001094,-0.00006925,0.00017462,-0.00610679,
 -0.00982549,0.00199738,-0.00562778,-0.00174138,-0.00067290,-0.00052927
 ,0.00335243,-0.00018673,0.00195046,-0.00314668,0.00048154,0.00084549,-
 0.00129185,0.00005680,0.00026530,0.00009923,-0.00004695,-0.00067248,-0
 .00007718,0.00001686,-0.00005740,-0.00007674,0.00000352,-0.00019725,0.
 00001606,0.00001864,0.00019144,0.00004067,-0.00001600,0.00001310,-0.00
 001422,-0.00000049,0.00001815,0.00000502,0.00001005,0.00001726,0.00000
 294,-0.00001190,-0.00000730,0.00000787,0.,0.00040786,-0.00005128,-0.00
 001442,-0.00009774,-0.00000373,0.00000229,-0.45727803,-0.07722074,0.07
 160159,0.46655971,-0.00130584,-0.00080546,0.00002791,0.00130684,-0.000
 19836,-0.00007891,-0.00190182,0.00159822,-0.00000868,-0.00048356,-0.00
 726547,-0.00123567,-0.04650131,-0.01140381,0.00667547,0.00100600,0.001
 08755,0.00004390,0.00008576,0.00000030,0.00000416,-0.00004582,-0.00038
 611,0.00002303,0.00004551,0.00002744,0.00011392,0.00251356,-0.00926103
 ,0.00047498,-0.00118373,0.00018295,-0.00021629,-0.00030038,-0.00050680
 ,-0.00042355,-0.00000190,0.00017601,0.00028454,0.00012116,0.00048109,-
 0.00005346,0.00008904,0.00051080,-0.00002961,0.00008630,0.00005102,0.0
 0022747,-0.00001275,-0.00002208,0.00002825,0.00001001,-0.00003643,-0.0
 0001355,0.00001405,0.00003443,-0.00004380,-0.00392380,-0.00259326,-0.0
 0058536,0.00252437,0.00233787,0.00101553,0.00127289,-0.00081910,-0.000
 04382,-0.00171801,0.00078413,-0.00027446,-0.00086881,0.00054850,0.0000
 0648,0.00000498,-0.00005392,0.00001752,0.00067252,0.00015509,-0.000037
 28,0.00004663,0.00000627,-0.00000295,0.00012361,0.00003965,-0.00001505
 ,-0.00019817,-0.00001916,0.00001044,-0.00001356,0.00001729,-0.00000024
 ,-0.00001740,-0.00000211,-0.00000470,-0.00001643,-0.00000210,0.0000063
 2,-0.00000121,-0.00001374,0.00000178,-0.00035588,-0.00005678,0.0000234
 8,0.00005206,0.00002870,0.00000083,-0.03664292,-0.05523393,0.00144086,
 0.08551801,0.08061235,0.00014392,-0.00027318,-0.00049127,0.00029134,-0
 .00006540,0.00009570,-0.00039241,-0.00001517,0.00160888,-0.00029734,-0
 .00218154,0.00317994,-0.00595647,-0.00019466,-0.00178103,0.00062291,-0
 .00042941,-0.00035215,0.00000788,0.00000260,-0.00013038,-0.00008288,-0
 .00009383,-0.00037063,0.00004553,0.00011719,-0.00055441,-0.00230514,-0
 .00213687,0.00114240,0.00035658,0.00054745,-0.00001020,-0.00051348,0.0
 0000825,0.00020129,0.00018141,0.00007762,-0.00026003,0.00011978,-0.000
 00266,-0.00002591,0.00005527,0.00026980,-0.00017879,-0.00008743,0.0000
 6276,0.00024921,-0.00001886,0.00001335,0.00000582,0.00007230,-0.000002
 88,-0.00003391,0.00002477,0.00000304,-0.00005129,0.00032259,-0.0003565
 8,-0.00383636,0.00168418,0.00125995,-0.00003005,-0.00007729,-0.0007590
 0,0.00034219,-0.00086464,0.00085055,-0.00031980,-0.00013598,0.00024612
 ,-0.00007805,-0.00004386,-0.00000494,0.00003162,0.00011423,0.00002136,
 0.00000573,0.00000925,0.00001306,-0.00001706,0.00002962,-0.00000136,0.
 00000444,-0.00003659,-0.00001456,-0.00003699,-0.00000257,0.00000377,0.
 00000026,-0.00000584,0.00000258,-0.00000155,-0.00000065,-0.00000381,0.
 00000169,0.00000119,-0.00000102,0.00000653,-0.00006752,0.00000702,0.00
 000180,0.00001863,0.00000558,0.00002690,0.07797707,0.01038430,-0.02467
 466,-0.07118949,-0.00735952,0.02633008\\-0.00000039,-0.00000150,0.0000
 0408,0.00000568,0.00000182,-0.00000139,-0.00000772,-0.00000008,-0.0000
 0039,0.00000223,0.00000429,-0.00000570,0.00001571,-0.00000017,0.000015
 98,0.00000209,0.00001243,0.00000158,-0.00000431,0.00000010,-0.00000171
 ,0.00000053,-0.00000364,0.00000082,-0.00000255,-0.00000360,0.00000203,
 -0.00001245,-0.00004486,-0.00001596,-0.00000238,0.00000570,-0.00000252
 ,0.00000405,0.00000251,-0.00000576,-0.00000290,0.00000210,0.00000123,0
 .00000170,0.00000256,0.00000042,-0.00000683,0.00000540,0.00000915,0.00
 000280,-0.00000336,-0.00001330,0.00000017,-0.00000231,0.00000313,-0.00
 000068,-0.00000070,0.00000171,0.00000004,-0.00000083,0.00000142,0.0000
 2893,0.00003843,0.00001452,-0.00001888,-0.00001930,-0.00000652,0.00000
 837,0.00002921,-0.00000175,-0.00000262,-0.00001414,0.00000881,0.000003
 14,-0.00000203,-0.00000058,-0.00000320,0.00000172,-0.00000272,0.000000
 70,-0.00000473,0.00000113,-0.00000197,0.00000183,-0.00000361,-0.000000
 84,-0.00000078,-0.00000142,-0.00000273,0.00000181,0.00000060,-0.000000
 13,0.00000031,-0.00000006,-0.00000007,0.00000032,0.00000021,0.00000004
 ,0.00000065,0.00000020,-0.00000010,0.00000055,0.00000037,0.00000176,0.
 00000117,0.,-0.00000048,0.00000112,0.00000032,0.00000098,0.00000686,-0
 .00000182,-0.00000773,-0.00001888,-0.00000248\\\@
 The archive entry for this job was punched.


 NOT WHAT WE DID SHALL BE THE TEST
 WHEN ACT AND WILL ARE DONE,
 BUT WHAT OUR LORD INFERS WE WOULD-
 HAD WE DIVINER BEEN.
           EMILY DICKINSON  POEMS NO. CLXXV
 Job cpu time:       0 days 16 hours 56 minutes 31.7 seconds.
 Elapsed time:       0 days  1 hours  3 minutes 37.4 seconds.
 File lengths (MBytes):  RWF=   1064 Int=      0 D2E=      0 Chk=     23 Scr=      1
 Normal termination of Gaussian 16 at Tue May 16 08:42:32 2023.
