 Entering Gaussian System, Link 0=g16
 Input=/home/user/WorkIMPORTANT/Akshay/OXICAMS/M06/Isoxicam/Drug/isoxicamM06.gjf
 Output=/home/user/WorkIMPORTANT/Akshay/OXICAMS/M06/Isoxicam/Drug/isoxicamM06.log
 Initial command:
 /home/user/gaussian/g16/l1.exe "/home/user/gaussian/scratch/Gau-2318356.inp" -scrdir="/home/user/gaussian/scratch/"
 Entering Link 1 = /home/user/gaussian/g16/l1.exe PID=   2318359.
  
 Copyright (c) 1988-2019, Gaussian, Inc.  All Rights Reserved.
  
 This is part of the Gaussian(R) 16 program.  It is based on
 the Gaussian(R) 09 system (copyright 2009, Gaussian, Inc.),
 the Gaussian(R) 03 system (copyright 2003, Gaussian, Inc.),
 the Gaussian(R) 98 system (copyright 1998, Gaussian, Inc.),
 the Gaussian(R) 94 system (copyright 1995, Gaussian, Inc.),
 the Gaussian 92(TM) system (copyright 1992, Gaussian, Inc.),
 the Gaussian 90(TM) system (copyright 1990, Gaussian, Inc.),
 the Gaussian 88(TM) system (copyright 1988, Gaussian, Inc.),
 the Gaussian 86(TM) system (copyright 1986, Carnegie Mellon
 University), and the Gaussian 82(TM) system (copyright 1983,
 Carnegie Mellon University). Gaussian is a federally registered
 trademark of Gaussian, Inc.
  
 This software contains proprietary and confidential information,
 including trade secrets, belonging to Gaussian, Inc.
  
 This software is provided under written license and may be
 used, copied, transmitted, or stored only in accord with that
 written license.
  
 The following legend is applicable only to US Government
 contracts under FAR:
  
                    RESTRICTED RIGHTS LEGEND
  
 Use, reproduction and disclosure by the US Government is
 subject to restrictions as set forth in subparagraphs (a)
 and (c) of the Commercial Computer Software - Restricted
 Rights clause in FAR 52.227-19.
  
 Gaussian, Inc.
 340 Quinnipiac St., Bldg. 40, Wallingford CT 06492
  
  
 ---------------------------------------------------------------
 Warning -- This program may not be used in any manner that
 competes with the business of Gaussian, Inc. or will provide
 assistance to any competitor of Gaussian, Inc.  The licensee
 of this program is prohibited from giving any competitor of
 Gaussian, Inc. access to this program.  By using this program,
 the user acknowledges that Gaussian, Inc. is engaged in the
 business of creating and licensing software in the field of
 computational chemistry and represents and warrants to the
 licensee that it is not a competitor of Gaussian, Inc. and that
 it will not use this program in any manner prohibited above.
 ---------------------------------------------------------------
  

 Cite this work as:
 Gaussian 16, Revision C.01,
 M. J. Frisch, G. W. Trucks, H. B. Schlegel, G. E. Scuseria, 
 M. A. Robb, J. R. Cheeseman, G. Scalmani, V. Barone, 
 G. A. Petersson, H. Nakatsuji, X. Li, M. Caricato, A. V. Marenich, 
 J. Bloino, B. G. Janesko, R. Gomperts, B. Mennucci, H. P. Hratchian, 
 J. V. Ortiz, A. F. Izmaylov, J. L. Sonnenberg, D. Williams-Young, 
 F. Ding, F. Lipparini, F. Egidi, J. Goings, B. Peng, A. Petrone, 
 T. Henderson, D. Ranasinghe, V. G. Zakrzewski, J. Gao, N. Rega, 
 G. Zheng, W. Liang, M. Hada, M. Ehara, K. Toyota, R. Fukuda, 
 J. Hasegawa, M. Ishida, T. Nakajima, Y. Honda, O. Kitao, H. Nakai, 
 T. Vreven, K. Throssell, J. A. Montgomery, Jr., J. E. Peralta, 
 F. Ogliaro, M. J. Bearpark, J. J. Heyd, E. N. Brothers, K. N. Kudin, 
 V. N. Staroverov, T. A. Keith, R. Kobayashi, J. Normand, 
 K. Raghavachari, A. P. Rendell, J. C. Burant, S. S. Iyengar, 
 J. Tomasi, M. Cossi, J. M. Millam, M. Klene, C. Adamo, R. Cammi, 
 J. W. Ochterski, R. L. Martin, K. Morokuma, O. Farkas, 
 J. B. Foresman, and D. J. Fox, Gaussian, Inc., Wallingford CT, 2019.
 
 ******************************************
 Gaussian 16:  ES64L-G16RevC.01  3-Jul-2019
                23-May-2022 
 ******************************************
 %nprocshared=15
 Will use up to   15 processors via shared memory.
 --------------------------
 # opt freq m06/6-31+g(d,p)
 --------------------------
 1/18=20,19=15,26=3,38=1/1,3;
 2/9=110,12=2,17=6,18=5,40=1/2;
 3/5=1,6=6,7=111,11=2,25=1,30=1,71=1,74=-54/1,2,3;
 4//1;
 5/5=2,38=5/2;
 6/7=2,8=2,9=2,10=2,28=1/1;
 7//1,2,3,16;
 1/18=20,19=15,26=3/3(2);
 2/9=110/2;
 99//99;
 2/9=110/2;
 3/5=1,6=6,7=111,11=2,25=1,30=1,71=1,74=-54/1,2,3;
 4/5=5,16=3,69=1/1;
 5/5=2,38=5/2;
 7//1,2,3,16;
 1/18=20,19=15,26=3/3(-5);
 2/9=110/2;
 6/7=2,8=2,9=2,10=2,19=2,28=1/1;
 99/9=1/99;
 --------
 Isoxicam
 --------
 Symbolic Z-matrix:
 Charge =  0 Multiplicity = 1
 C                     3.11936   0.26534  -0.15646 
 C                     4.47665   0.57301  -0.13904 
 C                     5.40256  -0.46122   0.01943 
 C                     4.96248  -1.78228   0.153 
 C                     3.60002  -2.08041   0.14544 
 C                     2.65321  -1.05457   0.00068 
 H                     4.79666   1.60407  -0.24639 
 H                     6.46414  -0.23509   0.0346 
 H                     5.68512  -2.58413   0.26843 
 H                     3.25292  -3.10161   0.25397 
 C                     1.21065  -1.34892   0.01344 
 C                     0.26091  -0.37413   0.21769 
 S                     1.90425   1.5522   -0.45467 
 O                     1.46587   1.47826  -1.847 
 O                     2.38452   2.80973   0.12298 
 N                     0.61957   0.98605   0.51303 
 C                     0.71227   1.32052   1.95624 
 H                    -0.25219   1.08422   2.41133 
 H                     1.49589   0.74327   2.46288 
 H                     0.90881   2.3868    2.06328 
 O                     0.88816  -2.62269  -0.21658 
 H                    -0.1137   -2.67063  -0.16626 
 C                    -1.16123  -0.70933   0.10154 
 O                    -1.54352  -1.89576  -0.0151 
 N                    -2.0264    0.34642   0.12635 
 H                    -1.61156   1.27309   0.12528 
 C                    -3.41412   0.28395   0.04321 
 N                    -4.0796    1.42237   0.08097 
 C                    -5.51839  -0.29542  -0.10787 
 C                    -4.2719   -0.84932  -0.07453 
 C                    -6.88892  -0.8651   -0.22307 
 H                    -7.49847  -0.59202   0.64482 
 H                    -7.39356  -0.48631  -1.11816 
 H                    -6.83686  -1.9539   -0.28554 
 O                    -5.42437   1.0512   -0.01732 
 H                    -3.98663  -1.88559  -0.12997 
 

 GradGradGradGradGradGradGradGradGradGradGradGradGradGradGradGradGradGrad
 Berny optimization.
 Initialization pass.
                           ----------------------------
                           !    Initial Parameters    !
                           ! (Angstroms and Degrees)  !
 --------------------------                            --------------------------
 ! Name  Definition              Value          Derivative Info.                !
 --------------------------------------------------------------------------------
 ! R1    R(1,2)                  1.3918         estimate D2E/DX2                !
 ! R2    R(1,6)                  1.4086         estimate D2E/DX2                !
 ! R3    R(1,13)                 1.7948         estimate D2E/DX2                !
 ! R4    R(2,3)                  1.3972         estimate D2E/DX2                !
 ! R5    R(2,7)                  1.0849         estimate D2E/DX2                !
 ! R6    R(3,4)                  1.3988         estimate D2E/DX2                !
 ! R7    R(3,8)                  1.0855         estimate D2E/DX2                !
 ! R8    R(4,5)                  1.3947         estimate D2E/DX2                !
 ! R9    R(4,9)                  1.0856         estimate D2E/DX2                !
 ! R10   R(5,6)                  1.4035         estimate D2E/DX2                !
 ! R11   R(5,10)                 1.084          estimate D2E/DX2                !
 ! R12   R(6,11)                 1.4723         estimate D2E/DX2                !
 ! R13   R(11,12)                1.3762         estimate D2E/DX2                !
 ! R14   R(11,21)                1.3339         estimate D2E/DX2                !
 ! R15   R(12,16)                1.4373         estimate D2E/DX2                !
 ! R16   R(12,23)                1.4657         estimate D2E/DX2                !
 ! R17   R(13,14)                1.4616         estimate D2E/DX2                !
 ! R18   R(13,15)                1.4648         estimate D2E/DX2                !
 ! R19   R(13,16)                1.7051         estimate D2E/DX2                !
 ! R20   R(16,17)                1.4844         estimate D2E/DX2                !
 ! R21   R(17,18)                1.0923         estimate D2E/DX2                !
 ! R22   R(17,19)                1.0973         estimate D2E/DX2                !
 ! R23   R(17,20)                1.0895         estimate D2E/DX2                !
 ! R24   R(21,22)                1.0043         estimate D2E/DX2                !
 ! R25   R(23,24)                1.2519         estimate D2E/DX2                !
 ! R26   R(23,25)                1.3652         estimate D2E/DX2                !
 ! R27   R(25,26)                1.0153         estimate D2E/DX2                !
 ! R28   R(25,27)                1.3916         estimate D2E/DX2                !
 ! R29   R(27,28)                1.3192         estimate D2E/DX2                !
 ! R30   R(27,30)                1.4262         estimate D2E/DX2                !
 ! R31   R(28,35)                1.3985         estimate D2E/DX2                !
 ! R32   R(29,30)                1.3644         estimate D2E/DX2                !
 ! R33   R(29,31)                1.4887         estimate D2E/DX2                !
 ! R34   R(29,35)                1.3529         estimate D2E/DX2                !
 ! R35   R(30,36)                1.0762         estimate D2E/DX2                !
 ! R36   R(31,32)                1.0951         estimate D2E/DX2                !
 ! R37   R(31,33)                1.0951         estimate D2E/DX2                !
 ! R38   R(31,34)                1.0918         estimate D2E/DX2                !
 ! A1    A(2,1,6)              121.9013         estimate D2E/DX2                !
 ! A2    A(2,1,13)             120.2511         estimate D2E/DX2                !
 ! A3    A(6,1,13)             117.7963         estimate D2E/DX2                !
 ! A4    A(1,2,3)              118.9499         estimate D2E/DX2                !
 ! A5    A(1,2,7)              119.7682         estimate D2E/DX2                !
 ! A6    A(3,2,7)              121.2819         estimate D2E/DX2                !
 ! A7    A(2,3,4)              120.0945         estimate D2E/DX2                !
 ! A8    A(2,3,8)              119.7011         estimate D2E/DX2                !
 ! A9    A(4,3,8)              120.204          estimate D2E/DX2                !
 ! A10   A(3,4,5)              120.5767         estimate D2E/DX2                !
 ! A11   A(3,4,9)              119.8878         estimate D2E/DX2                !
 ! A12   A(5,4,9)              119.5349         estimate D2E/DX2                !
 ! A13   A(4,5,6)              120.2203         estimate D2E/DX2                !
 ! A14   A(4,5,10)             120.9052         estimate D2E/DX2                !
 ! A15   A(6,5,10)             118.8742         estimate D2E/DX2                !
 ! A16   A(1,6,5)              118.2398         estimate D2E/DX2                !
 ! A17   A(1,6,11)             120.8329         estimate D2E/DX2                !
 ! A18   A(5,6,11)             120.9273         estimate D2E/DX2                !
 ! A19   A(6,11,12)            122.4008         estimate D2E/DX2                !
 ! A20   A(6,11,21)            115.2314         estimate D2E/DX2                !
 ! A21   A(12,11,21)           122.3518         estimate D2E/DX2                !
 ! A22   A(11,12,16)           121.9097         estimate D2E/DX2                !
 ! A23   A(11,12,23)           119.7257         estimate D2E/DX2                !
 ! A24   A(16,12,23)           118.3471         estimate D2E/DX2                !
 ! A25   A(1,13,14)            108.9692         estimate D2E/DX2                !
 ! A26   A(1,13,15)            109.1487         estimate D2E/DX2                !
 ! A27   A(1,13,16)            100.2369         estimate D2E/DX2                !
 ! A28   A(14,13,15)           121.1605         estimate D2E/DX2                !
 ! A29   A(14,13,16)           107.3295         estimate D2E/DX2                !
 ! A30   A(15,13,16)           107.9548         estimate D2E/DX2                !
 ! A31   A(12,16,13)           112.6811         estimate D2E/DX2                !
 ! A32   A(12,16,17)           115.3784         estimate D2E/DX2                !
 ! A33   A(13,16,17)           115.463          estimate D2E/DX2                !
 ! A34   A(16,17,18)           107.5296         estimate D2E/DX2                !
 ! A35   A(16,17,19)           112.024          estimate D2E/DX2                !
 ! A36   A(16,17,20)           109.1058         estimate D2E/DX2                !
 ! A37   A(18,17,19)           108.9287         estimate D2E/DX2                !
 ! A38   A(18,17,20)           109.2728         estimate D2E/DX2                !
 ! A39   A(19,17,20)           109.9179         estimate D2E/DX2                !
 ! A40   A(11,21,22)           106.1481         estimate D2E/DX2                !
 ! A41   A(12,23,24)           121.3583         estimate D2E/DX2                !
 ! A42   A(12,23,25)           115.8869         estimate D2E/DX2                !
 ! A43   A(24,23,25)           122.7547         estimate D2E/DX2                !
 ! A44   A(23,25,26)           116.5432         estimate D2E/DX2                !
 ! A45   A(23,25,27)           126.5956         estimate D2E/DX2                !
 ! A46   A(26,25,27)           116.6387         estimate D2E/DX2                !
 ! A47   A(25,27,28)           117.5551         estimate D2E/DX2                !
 ! A48   A(25,27,30)           129.8201         estimate D2E/DX2                !
 ! A49   A(28,27,30)           112.6241         estimate D2E/DX2                !
 ! A50   A(27,28,35)           104.7161         estimate D2E/DX2                !
 ! A51   A(30,29,31)           133.4405         estimate D2E/DX2                !
 ! A52   A(30,29,35)           109.8126         estimate D2E/DX2                !
 ! A53   A(31,29,35)           116.7466         estimate D2E/DX2                !
 ! A54   A(27,30,29)           103.2326         estimate D2E/DX2                !
 ! A55   A(27,30,36)           127.5853         estimate D2E/DX2                !
 ! A56   A(29,30,36)           129.1807         estimate D2E/DX2                !
 ! A57   A(29,31,32)           110.8348         estimate D2E/DX2                !
 ! A58   A(29,31,33)           110.8006         estimate D2E/DX2                !
 ! A59   A(29,31,34)           110.0077         estimate D2E/DX2                !
 ! A60   A(32,31,33)           107.7575         estimate D2E/DX2                !
 ! A61   A(32,31,34)           108.696          estimate D2E/DX2                !
 ! A62   A(33,31,34)           108.6704         estimate D2E/DX2                !
 ! A63   A(28,35,29)           109.6145         estimate D2E/DX2                !
 ! D1    D(6,1,2,3)              0.9533         estimate D2E/DX2                !
 ! D2    D(6,1,2,7)           -178.9573         estimate D2E/DX2                !
 ! D3    D(13,1,2,3)          -176.3837         estimate D2E/DX2                !
 ! D4    D(13,1,2,7)             3.7058         estimate D2E/DX2                !
 ! D5    D(2,1,6,5)             -1.5614         estimate D2E/DX2                !
 ! D6    D(2,1,6,11)           178.3997         estimate D2E/DX2                !
 ! D7    D(13,1,6,5)           175.8382         estimate D2E/DX2                !
 ! D8    D(13,1,6,11)           -4.2007         estimate D2E/DX2                !
 ! D9    D(2,1,13,14)          100.7111         estimate D2E/DX2                !
 ! D10   D(2,1,13,15)          -33.5998         estimate D2E/DX2                !
 ! D11   D(2,1,13,16)         -146.8226         estimate D2E/DX2                !
 ! D12   D(6,1,13,14)          -76.7333         estimate D2E/DX2                !
 ! D13   D(6,1,13,15)          148.9559         estimate D2E/DX2                !
 ! D14   D(6,1,13,16)           35.7331         estimate D2E/DX2                !
 ! D15   D(1,2,3,4)              0.2198         estimate D2E/DX2                !
 ! D16   D(1,2,3,8)            179.9905         estimate D2E/DX2                !
 ! D17   D(7,2,3,4)           -179.871          estimate D2E/DX2                !
 ! D18   D(7,2,3,8)             -0.1003         estimate D2E/DX2                !
 ! D19   D(2,3,4,5)             -0.7522         estimate D2E/DX2                !
 ! D20   D(2,3,4,9)            179.5384         estimate D2E/DX2                !
 ! D21   D(8,3,4,5)            179.4783         estimate D2E/DX2                !
 ! D22   D(8,3,4,9)             -0.2311         estimate D2E/DX2                !
 ! D23   D(3,4,5,6)              0.1209         estimate D2E/DX2                !
 ! D24   D(3,4,5,10)          -179.6649         estimate D2E/DX2                !
 ! D25   D(9,4,5,6)            179.8314         estimate D2E/DX2                !
 ! D26   D(9,4,5,10)             0.0455         estimate D2E/DX2                !
 ! D27   D(4,5,6,1)              1.0053         estimate D2E/DX2                !
 ! D28   D(4,5,6,11)          -178.9557         estimate D2E/DX2                !
 ! D29   D(10,5,6,1)          -179.2045         estimate D2E/DX2                !
 ! D30   D(10,5,6,11)            0.8344         estimate D2E/DX2                !
 ! D31   D(1,6,11,12)          -16.971          estimate D2E/DX2                !
 ! D32   D(1,6,11,21)          161.6059         estimate D2E/DX2                !
 ! D33   D(5,6,11,12)          162.9891         estimate D2E/DX2                !
 ! D34   D(5,6,11,21)          -18.434          estimate D2E/DX2                !
 ! D35   D(6,11,12,16)          -3.8343         estimate D2E/DX2                !
 ! D36   D(6,11,12,23)         174.6168         estimate D2E/DX2                !
 ! D37   D(21,11,12,16)        177.6895         estimate D2E/DX2                !
 ! D38   D(21,11,12,23)         -3.8594         estimate D2E/DX2                !
 ! D39   D(6,11,21,22)         179.342          estimate D2E/DX2                !
 ! D40   D(12,11,21,22)         -2.0803         estimate D2E/DX2                !
 ! D41   D(11,12,16,13)         42.9996         estimate D2E/DX2                !
 ! D42   D(11,12,16,17)        -92.5605         estimate D2E/DX2                !
 ! D43   D(23,12,16,13)       -135.4721         estimate D2E/DX2                !
 ! D44   D(23,12,16,17)         88.9678         estimate D2E/DX2                !
 ! D45   D(11,12,23,24)          9.0261         estimate D2E/DX2                !
 ! D46   D(11,12,23,25)       -170.8499         estimate D2E/DX2                !
 ! D47   D(16,12,23,24)       -172.4678         estimate D2E/DX2                !
 ! D48   D(16,12,23,25)          7.6561         estimate D2E/DX2                !
 ! D49   D(1,13,16,12)         -53.1965         estimate D2E/DX2                !
 ! D50   D(1,13,16,17)          82.3241         estimate D2E/DX2                !
 ! D51   D(14,13,16,12)         60.5302         estimate D2E/DX2                !
 ! D52   D(14,13,16,17)       -163.9492         estimate D2E/DX2                !
 ! D53   D(15,13,16,12)       -167.333          estimate D2E/DX2                !
 ! D54   D(15,13,16,17)        -31.8124         estimate D2E/DX2                !
 ! D55   D(12,16,17,18)        -57.0555         estimate D2E/DX2                !
 ! D56   D(12,16,17,19)         62.5972         estimate D2E/DX2                !
 ! D57   D(12,16,17,20)       -175.4626         estimate D2E/DX2                !
 ! D58   D(13,16,17,18)        168.6302         estimate D2E/DX2                !
 ! D59   D(13,16,17,19)        -71.7171         estimate D2E/DX2                !
 ! D60   D(13,16,17,20)         50.2231         estimate D2E/DX2                !
 ! D61   D(12,23,25,26)          6.15           estimate D2E/DX2                !
 ! D62   D(12,23,25,27)       -179.4824         estimate D2E/DX2                !
 ! D63   D(24,23,25,26)       -173.7242         estimate D2E/DX2                !
 ! D64   D(24,23,25,27)          0.6434         estimate D2E/DX2                !
 ! D65   D(23,25,27,28)       -179.7965         estimate D2E/DX2                !
 ! D66   D(23,25,27,30)          0.537          estimate D2E/DX2                !
 ! D67   D(26,25,27,28)         -5.4337         estimate D2E/DX2                !
 ! D68   D(26,25,27,30)        174.8999         estimate D2E/DX2                !
 ! D69   D(25,27,28,35)       -179.8764         estimate D2E/DX2                !
 ! D70   D(30,27,28,35)         -0.1539         estimate D2E/DX2                !
 ! D71   D(25,27,30,29)        179.8119         estimate D2E/DX2                !
 ! D72   D(25,27,30,36)         -0.5998         estimate D2E/DX2                !
 ! D73   D(28,27,30,29)          0.1322         estimate D2E/DX2                !
 ! D74   D(28,27,30,36)        179.7206         estimate D2E/DX2                !
 ! D75   D(27,28,35,29)          0.1177         estimate D2E/DX2                !
 ! D76   D(31,29,30,27)        179.7482         estimate D2E/DX2                !
 ! D77   D(31,29,30,36)          0.169          estimate D2E/DX2                !
 ! D78   D(35,29,30,27)         -0.051          estimate D2E/DX2                !
 ! D79   D(35,29,30,36)       -179.6302         estimate D2E/DX2                !
 ! D80   D(30,29,31,32)        120.6341         estimate D2E/DX2                !
 ! D81   D(30,29,31,33)       -119.7854         estimate D2E/DX2                !
 ! D82   D(30,29,31,34)          0.3974         estimate D2E/DX2                !
 ! D83   D(35,29,31,32)        -59.5774         estimate D2E/DX2                !
 ! D84   D(35,29,31,33)         60.0031         estimate D2E/DX2                !
 ! D85   D(35,29,31,34)       -179.8141         estimate D2E/DX2                !
 ! D86   D(30,29,35,28)         -0.0385         estimate D2E/DX2                !
 ! D87   D(31,29,35,28)       -179.8752         estimate D2E/DX2                !
 --------------------------------------------------------------------------------
 Trust Radius=3.00D-01 FncErr=1.00D-07 GrdErr=1.00D-06 EigMax=2.50D+02 EigMin=1.00D-04
 Number of steps in this run=    198 maximum allowed number of steps=    216.
 GradGradGradGradGradGradGradGradGradGradGradGradGradGradGradGradGradGrad

                          Input orientation:                          
 ---------------------------------------------------------------------
 Center     Atomic      Atomic             Coordinates (Angstroms)
 Number     Number       Type             X           Y           Z
 ---------------------------------------------------------------------
      1          6           0        3.119361    0.265343   -0.156458
      2          6           0        4.476652    0.573013   -0.139042
      3          6           0        5.402556   -0.461221    0.019427
      4          6           0        4.962477   -1.782276    0.153001
      5          6           0        3.600021   -2.080413    0.145442
      6          6           0        2.653212   -1.054570    0.000678
      7          1           0        4.796663    1.604069   -0.246392
      8          1           0        6.464139   -0.235085    0.034600
      9          1           0        5.685117   -2.584133    0.268427
     10          1           0        3.252924   -3.101614    0.253967
     11          6           0        1.210650   -1.348919    0.013438
     12          6           0        0.260906   -0.374130    0.217694
     13         16           0        1.904247    1.552204   -0.454674
     14          8           0        1.465874    1.478257   -1.847003
     15          8           0        2.384522    2.809734    0.122983
     16          7           0        0.619567    0.986051    0.513029
     17          6           0        0.712269    1.320523    1.956239
     18          1           0       -0.252188    1.084222    2.411333
     19          1           0        1.495890    0.743274    2.462882
     20          1           0        0.908809    2.386801    2.063279
     21          8           0        0.888158   -2.622693   -0.216579
     22          1           0       -0.113703   -2.670633   -0.166255
     23          6           0       -1.161232   -0.709331    0.101539
     24          8           0       -1.543523   -1.895762   -0.015103
     25          7           0       -2.026404    0.346422    0.126350
     26          1           0       -1.611557    1.273094    0.125276
     27          6           0       -3.414121    0.283954    0.043205
     28          7           0       -4.079601    1.422367    0.080969
     29          6           0       -5.518387   -0.295419   -0.107866
     30          6           0       -4.271902   -0.849316   -0.074526
     31          6           0       -6.888918   -0.865100   -0.223065
     32          1           0       -7.498472   -0.592018    0.644815
     33          1           0       -7.393562   -0.486310   -1.118161
     34          1           0       -6.836862   -1.953902   -0.285539
     35          8           0       -5.424371    1.051196   -0.017315
     36          1           0       -3.986634   -1.885588   -0.129970
 ---------------------------------------------------------------------
                    Distance matrix (angstroms):
                    1          2          3          4          5
     1  C    0.000000
     2  C    1.391834   0.000000
     3  C    2.402459   1.397158   0.000000
     4  C    2.772289   2.422540   1.398820   0.000000
     5  C    2.413452   2.808929   2.426272   1.394715   0.000000
     6  C    1.408601   2.448159   2.812705   2.425997   1.403481
     7  H    2.147933   1.084900   2.168684   3.413846   3.893699
     8  H    3.387399   2.152505   1.085507   2.159354   3.408914
     9  H    3.857868   3.404995   2.156061   1.085590   2.148601
    10  H    3.394508   3.892923   3.412858   2.161809   1.084023
    11  C    2.505571   3.792604   4.284871   3.779349   2.502319
    12  C    2.952911   4.335534   5.146208   4.908343   3.750508
    13  S    1.794839   2.770506   4.064089   4.565172   4.053603
    14  O    2.657653   3.577902   4.768920   5.182405   4.603103
    15  O    2.663081   3.073855   4.451786   5.266242   5.038996
    16  N    2.686374   3.933561   5.021476   5.162763   4.292019
    17  C    3.372089   4.372591   5.378164   5.562670   4.815025
    18  H    4.316417   5.397006   6.331330   6.364716   5.476193
    19  H    3.118496   3.960295   4.762701   4.871466   4.215579
    20  H    3.783432   4.568320   5.699326   6.120669   5.556683
    21  O    3.650018   4.805813   5.010733   4.176478   2.789145
    22  H    4.367236   5.620795   5.945174   5.163207   3.773229
    23  C    4.397730   5.786884   6.568989   6.217208   4.954929
    24  O    5.141288   6.507897   7.092751   6.509161   5.149361
    25  N    5.154168   6.512412   7.473498   7.305924   6.127524
    26  H    4.845258   6.134025   7.226122   7.249412   6.197335
    27  C    6.536559   7.898169   8.848144   8.628369   7.402626
    28  N    7.295213   8.601120   9.667626   9.593440   8.440984
    29  C    8.656068  10.032744  10.922943  10.589018   9.294930
    30  C    7.475289   8.863655   9.682695   9.284177   7.970643
    31  C   10.072139  11.456501  12.300498  11.892779  10.565539
    32  H   10.682485  12.057169  12.916839  12.527324  11.208980
    33  H   10.583544  11.957542  12.846609  12.488678  11.180193
    34  H   10.201377  11.593203  12.333874  11.808733  10.446544
    35  O    8.580925   9.913311  10.932113  10.767738   9.553696
    36  H    7.424444   8.813173   9.497791   8.954180   7.594152
                    6          7          8          9         10
     6  C    0.000000
     7  H    3.424002   0.000000
     8  H    3.898188   2.498384   0.000000
     9  H    3.406420   4.312241   2.485875   0.000000
    10  H    2.148069   4.977644   4.310106   2.486676   0.000000
    11  C    1.472341   4.652649   5.370309   4.648831   2.701977
    12  C    2.496642   4.970084   6.207492   5.857367   4.048785
    13  S    2.750194   2.900369   4.922033   5.650410   4.896848
    14  O    3.352448   3.697559   5.608799   6.227364   5.346292
    15  O    3.875564   2.721854   5.091366   6.325258   5.976229
    16  N    2.926149   4.290314   5.989916   6.202084   4.869362
    17  C    3.637657   4.649113   6.260721   6.544025   5.376612
    18  H    4.339013   5.729279   7.245583   7.300717   5.870371
    19  H    3.260995   4.356172   5.615803   5.782464   4.769658
    20  H    4.374963   4.589407   6.469275   7.123538   6.236280
    21  O    2.370997   5.756980   6.070859   4.821570   2.458230
    22  H    3.208636   6.510852   7.017139   5.815732   3.420016
    23  C    3.831363   6.400733   7.640397   7.100368   5.023049
    24  O    4.280238   7.245707   8.178201   7.266876   4.953017
    25  N    4.886448   6.948011   8.510928   8.250812   6.306865
    26  H    4.860226   6.427516   8.215820   8.254704   6.543532
    27  C    6.213371   8.321271   9.891890   9.543206   7.480373
    28  N    7.174429   8.884157  10.673320  10.556368   8.617555
    29  C    8.207504  10.489399  11.983525  11.441080   9.216374
    30  C    6.928563   9.396143  10.754151  10.112835   7.861537
    31  C    9.546633  11.943624  13.370394  12.700512  10.396466
    32  H   10.182610  12.521477  13.980496  13.338561  11.047323
    33  H   10.124840  12.398841  13.907834  13.318233  11.048539
    34  H    9.536887  12.165508  13.415418  12.550061  10.169174
    35  O    8.347570  10.238539  11.958005  11.692647   9.623662
    36  H    6.692923   9.451855  10.581583   9.705125   7.351009
                   11         12         13         14         15
    11  C    0.000000
    12  C    1.376208   0.000000
    13  S    3.019391   2.619811   0.000000
    14  O    3.394010   3.024278   1.461581   0.000000
    15  O    4.322542   3.828277   1.464832   2.549037   0.000000
    16  N    2.459889   1.437342   1.705104   2.555045   2.567688
    17  C    3.338979   2.469436   2.699442   3.880393   2.893960
    18  H    3.716177   2.683674   3.617073   4.608734   3.894378
    19  H    3.233946   2.795469   3.055038   4.372209   3.245774
    20  H    4.271833   3.383593   2.833291   4.052910   2.474136
    21  O    1.333945   2.374463   4.303358   4.450823   5.644969
    22  H    1.879662   2.358320   4.689100   4.746922   6.029860
    23  C    2.458182   1.465718   3.849815   3.934977   4.995663
    24  O    2.808081   2.371818   4.895795   4.878148   6.131093
    25  N    3.655879   2.399860   4.152291   4.167875   5.052147
    26  H    3.853870   2.495597   3.574230   3.660950   4.281345
    27  C    4.904658   3.737559   5.490117   5.367830   6.325361
    28  N    5.972549   4.699585   6.009177   5.871328   6.611463
    29  C    6.812086   5.788991   7.656989   7.412855   8.494188
    30  C    5.505971   4.567006   6.637517   6.440601   7.598397
    31  C    8.117451   7.180202   9.122322   8.827856   9.981024
    32  H    8.764721   7.774179   9.706580   9.531773  10.465075
    33  H    8.721071   7.770970   9.541751   9.103864  10.393040
    34  H    8.075756   7.288843   9.419574   9.118844  10.387158
    35  O    7.055849   5.865932   7.358732   7.141822   8.005682
    36  H    5.226886   4.521833   6.828347   6.632760   7.918438
                   16         17         18         19         20
    16  N    0.000000
    17  C    1.484359   0.000000
    18  H    2.091208   1.092303   0.000000
    19  H    2.151467   1.097254   1.781763   0.000000
    20  H    2.109274   1.089511   1.779260   1.790399   0.000000
    21  O    3.691545   4.505666   4.684819   4.344949   5.503927
    22  H    3.790838   4.595273   4.556542   4.599773   5.620853
    23  C    2.492968   3.327195   3.062408   3.840091   4.209457
    24  O    3.641803   4.395370   4.054065   4.726833   5.354806
    25  N    2.749511   3.434777   2.985521   4.245401   4.065749
    26  H    2.282687   2.958858   2.666386   3.924454   3.368745
    27  C    4.121203   4.664898   4.030667   5.493088   5.214440
    28  N    4.739117   5.146749   4.493777   6.100883   5.453799
    29  C    6.300965   6.759650   5.998552   7.542394   7.295000
    30  C    5.257401   5.802945   5.106483   6.499400   6.471664
    31  C    7.768265   8.203923   7.401763   8.950206   8.752530
    32  H    8.271047   8.531935   7.644540   9.272913   9.031488
    33  H    8.308963   8.855568   8.119305   9.662200   9.343751
    34  H    8.054773   8.528588   7.737005   9.179506   9.184447
    35  O    6.067511   6.451806   5.714096   7.357731   6.798668
    36  H    5.465972   6.058969   5.405930   6.609982   6.857770
                   21         22         23         24         25
    21  O    0.000000
    22  H    1.004269   0.000000
    23  C    2.821729   2.239584   0.000000
    24  O    2.545996   1.633296   1.251947   0.000000
    25  N    4.174676   3.584224   1.365193   2.297950   0.000000
    26  H    4.641400   4.228657   2.033068   3.172693   1.015293
    27  C    5.198624   4.434661   2.462829   2.872925   1.391608
    28  N    6.413242   5.704570   3.614061   4.177428   2.318477
    29  C    6.817026   5.903868   4.381777   4.285936   3.558196
    30  C    5.458137   4.540510   3.118792   2.922778   2.551941
    31  C    7.973211   7.011898   5.738991   5.447822   5.023337
    32  H    8.671863   7.714486   6.361566   6.131611   5.576110
    33  H    8.600225   7.659879   6.354474   6.117700   5.572130
    34  H    7.754223   6.762307   5.823363   5.300562   5.348051
    35  O    7.306517   6.486709   4.613885   4.872940   3.473259
    36  H    4.930966   3.951861   3.069214   2.445831   2.981622
                   26         27         28         29         30
    26  H    0.000000
    27  C    2.057759   0.000000
    28  N    2.472951   1.319194   0.000000
    29  C    4.216386   2.187791   2.248678   0.000000
    30  C    3.409103   1.426166   2.285104   1.364419   0.000000
    31  C    5.704713   3.669528   3.635547   1.488678   2.621276
    32  H    6.197123   4.220330   4.008035   2.138980   3.315782
    33  H    6.170350   4.216400   4.007904   2.138555   3.311451
    34  H    6.155167   4.102588   4.374472   2.126149   2.800653
    35  O    3.821926   2.152540   1.398511   1.352927   2.223377
    36  H    3.960229   2.250483   3.315977   2.208029   1.076249
                   31         32         33         34         35
    31  C    0.000000
    32  H    1.095146   0.000000
    33  H    1.095146   1.769255   0.000000
    34  H    1.091835   1.777080   1.776795   0.000000
    35  O    2.420624   2.727721   2.730110   3.331319   0.000000
    36  H    3.077875   3.821861   3.813353   2.855288   3.271770
                   36
    36  H    0.000000
 Stoichiometry    C14H13N3O5S
 Framework group  C1[X(C14H13N3O5S)]
 Deg. of freedom   102
 Full point group                 C1      NOp   1
 Largest Abelian subgroup         C1      NOp   1
 Largest concise Abelian subgroup C1      NOp   1
                         Standard orientation:                         
 ---------------------------------------------------------------------
 Center     Atomic      Atomic             Coordinates (Angstroms)
 Number     Number       Type             X           Y           Z
 ---------------------------------------------------------------------
      1          6           0       -3.119361   -0.265343   -0.156458
      2          6           0       -4.476652   -0.573013   -0.139042
      3          6           0       -5.402556    0.461221    0.019427
      4          6           0       -4.962477    1.782276    0.153001
      5          6           0       -3.600021    2.080413    0.145442
      6          6           0       -2.653212    1.054570    0.000678
      7          1           0       -4.796663   -1.604069   -0.246392
      8          1           0       -6.464139    0.235085    0.034600
      9          1           0       -5.685117    2.584133    0.268427
     10          1           0       -3.252924    3.101614    0.253967
     11          6           0       -1.210650    1.348919    0.013438
     12          6           0       -0.260906    0.374130    0.217694
     13         16           0       -1.904247   -1.552204   -0.454674
     14          8           0       -1.465874   -1.478257   -1.847003
     15          8           0       -2.384522   -2.809734    0.122983
     16          7           0       -0.619567   -0.986051    0.513029
     17          6           0       -0.712269   -1.320523    1.956239
     18          1           0        0.252188   -1.084222    2.411333
     19          1           0       -1.495890   -0.743274    2.462882
     20          1           0       -0.908809   -2.386801    2.063279
     21          8           0       -0.888158    2.622693   -0.216579
     22          1           0        0.113703    2.670633   -0.166255
     23          6           0        1.161232    0.709331    0.101539
     24          8           0        1.543523    1.895762   -0.015103
     25          7           0        2.026404   -0.346422    0.126350
     26          1           0        1.611557   -1.273094    0.125276
     27          6           0        3.414121   -0.283954    0.043205
     28          7           0        4.079601   -1.422367    0.080969
     29          6           0        5.518387    0.295419   -0.107866
     30          6           0        4.271902    0.849316   -0.074526
     31          6           0        6.888918    0.865100   -0.223065
     32          1           0        7.498472    0.592018    0.644815
     33          1           0        7.393562    0.486310   -1.118161
     34          1           0        6.836862    1.953902   -0.285539
     35          8           0        5.424371   -1.051196   -0.017315
     36          1           0        3.986634    1.885588   -0.129970
 ---------------------------------------------------------------------
 Rotational constants (GHZ):           0.6133330           0.1245422           0.1094716
 Standard basis: 6-31+G(d,p) (6D, 7F)
 There are   506 symmetry adapted cartesian basis functions of A   symmetry.
 There are   506 symmetry adapted basis functions of A   symmetry.
   506 basis functions,   851 primitive gaussians,   506 cartesian basis functions
    87 alpha electrons       87 beta electrons
       nuclear repulsion energy      2119.6006043081 Hartrees.
 NAtoms=   36 NActive=   36 NUniq=   36 SFac= 1.00D+00 NAtFMM=   60 NAOKFM=F Big=F
 Integral buffers will be    131072 words long.
 Raffenetti 2 integral format.
 Two-electron integral symmetry is turned on.
 One-electron integrals computed using PRISM.
 NBasis=   506 RedAO= T EigKep=  1.54D-06  NBF=   506
 NBsUse=   503 1.00D-06 EigRej=  7.65D-07 NBFU=   503
 ExpMin= 4.05D-02 ExpMax= 2.19D+04 ExpMxC= 3.30D+03 IAcc=3 IRadAn=         5 AccDes= 0.00D+00
 Harris functional with IExCor= 1009 and IRadAn=       5 diagonalized for initial guess.
 HarFok:  IExCor= 1009 AccDes= 0.00D+00 IRadAn=         5 IDoV= 1 UseB2=F ITyADJ=14
 ICtDFT=  3500011 ScaDFX=  1.000000  1.000000  1.000000  1.000000
 FoFCou: FMM=F IPFlag=           0 FMFlag=      100000 FMFlg1=           0
         NFxFlg=           0 DoJE=T BraDBF=F KetDBF=T FulRan=T
         wScrn=  0.000000 ICntrl=       500 IOpCl=  0 I1Cent=   200000004 NGrid=           0
         NMat0=    1 NMatS0=      1 NMatT0=    0 NMatD0=    1 NMtDS0=    0 NMtDT0=    0
 Petite list used in FoFCou.
 Requested convergence on RMS density matrix=1.00D-08 within 128 cycles.
 Requested convergence on MAX density matrix=1.00D-06.
 Requested convergence on             energy=1.00D-06.
 No special actions if energy rises.
 SCF Done:  E(RM06) =  -1479.16670513     A.U. after   16 cycles
            NFock= 16  Conv=0.61D-08     -V/T= 2.0087

 **********************************************************************

            Population analysis using the SCF Density.

 **********************************************************************

 Orbital symmetries:
       Occupied  (A) (A) (A) (A) (A) (A) (A) (A) (A) (A) (A) (A)
                 (A) (A) (A) (A) (A) (A) (A) (A) (A) (A) (A) (A)
                 (A) (A) (A) (A) (A) (A) (A) (A) (A) (A) (A) (A)
                 (A) (A) (A) (A) (A) (A) (A) (A) (A) (A) (A) (A)
                 (A) (A) (A) (A) (A) (A) (A) (A) (A) (A) (A) (A)
                 (A) (A) (A) (A) (A) (A) (A) (A) (A) (A) (A) (A)
                 (A) (A) (A) (A) (A) (A) (A) (A) (A) (A) (A) (A)
                 (A) (A) (A)
       Virtual   (A) (A) (A) (A) (A) (A) (A) (A) (A) (A) (A) (A)
                 (A) (A) (A) (A) (A) (A) (A) (A) (A) (A) (A) (A)
                 (A) (A) (A) (A) (A) (A) (A) (A) (A) (A) (A) (A)
                 (A) (A) (A) (A) (A) (A) (A) (A) (A) (A) (A) (A)
                 (A) (A) (A) (A) (A) (A) (A) (A) (A) (A) (A) (A)
                 (A) (A) (A) (A) (A) (A) (A) (A) (A) (A) (A) (A)
                 (A) (A) (A) (A) (A) (A) (A) (A) (A) (A) (A) (A)
                 (A) (A) (A) (A) (A) (A) (A) (A) (A) (A) (A) (A)
                 (A) (A) (A) (A) (A) (A) (A) (A) (A) (A) (A) (A)
                 (A) (A) (A) (A) (A) (A) (A) (A) (A) (A) (A) (A)
                 (A) (A) (A) (A) (A) (A) (A) (A) (A) (A) (A) (A)
                 (A) (A) (A) (A) (A) (A) (A) (A) (A) (A) (A) (A)
                 (A) (A) (A) (A) (A) (A) (A) (A) (A) (A) (A) (A)
                 (A) (A) (A) (A) (A) (A) (A) (A) (A) (A) (A) (A)
                 (A) (A) (A) (A) (A) (A) (A) (A) (A) (A) (A) (A)
                 (A) (A) (A) (A) (A) (A) (A) (A) (A) (A) (A) (A)
                 (A) (A) (A) (A) (A) (A) (A) (A) (A) (A) (A) (A)
                 (A) (A) (A) (A) (A) (A) (A) (A) (A) (A) (A) (A)
                 (A) (A) (A) (A) (A) (A) (A) (A) (A) (A) (A) (A)
                 (A) (A) (A) (A) (A) (A) (A) (A) (A) (A) (A) (A)
                 (A) (A) (A) (A) (A) (A) (A) (A) (A) (A) (A) (A)
                 (A) (A) (A) (A) (A) (A) (A) (A) (A) (A) (A) (A)
                 (A) (A) (A) (A) (A) (A) (A) (A) (A) (A) (A) (A)
                 (A) (A) (A) (A) (A) (A) (A) (A) (A) (A) (A) (A)
                 (A) (A) (A) (A) (A) (A) (A) (A) (A) (A) (A) (A)
                 (A) (A) (A) (A) (A) (A) (A) (A) (A) (A) (A) (A)
                 (A) (A) (A) (A) (A) (A) (A) (A) (A) (A) (A) (A)
                 (A) (A) (A) (A) (A) (A) (A) (A) (A) (A) (A) (A)
                 (A) (A) (A) (A) (A) (A) (A) (A) (A) (A) (A) (A)
                 (A) (A) (A) (A) (A) (A) (A) (A) (A) (A) (A) (A)
                 (A) (A) (A) (A) (A) (A) (A) (A) (A) (A) (A) (A)
                 (A) (A) (A) (A) (A) (A) (A) (A) (A) (A) (A) (A)
                 (A) (A) (A) (A) (A) (A) (A) (A) (A) (A) (A) (A)
                 (A) (A) (A) (A) (A) (A) (A) (A) (A) (A) (A) (A)
                 (A) (A) (A) (A) (A) (A) (A) (A)
 The electronic state is 1-A.
 Alpha  occ. eigenvalues --  -89.31332 -19.33459 -19.29289 -19.25963 -19.25573
 Alpha  occ. eigenvalues --  -19.24718 -14.48088 -14.48002 -14.46729 -10.40553
 Alpha  occ. eigenvalues --  -10.38032 -10.35142 -10.34802 -10.32892 -10.32369
 Alpha  occ. eigenvalues --  -10.32333 -10.31335 -10.30973 -10.30693 -10.30591
 Alpha  occ. eigenvalues --  -10.30515 -10.28315 -10.27354  -8.27883  -6.19705
 Alpha  occ. eigenvalues --   -6.19604  -6.19510  -1.17474  -1.15964  -1.12706
 Alpha  occ. eigenvalues --   -1.08963  -1.05329  -0.99984  -0.98258  -0.91752
 Alpha  occ. eigenvalues --   -0.88418  -0.83439  -0.83153  -0.81467  -0.79508
 Alpha  occ. eigenvalues --   -0.74718  -0.74627  -0.71658  -0.68604  -0.67434
 Alpha  occ. eigenvalues --   -0.64800  -0.63037  -0.61211  -0.60745  -0.58829
 Alpha  occ. eigenvalues --   -0.56922  -0.54087  -0.53753  -0.52603  -0.52399
 Alpha  occ. eigenvalues --   -0.50846  -0.50317  -0.50047  -0.49157  -0.48624
 Alpha  occ. eigenvalues --   -0.47996  -0.47832  -0.47229  -0.46173  -0.45080
 Alpha  occ. eigenvalues --   -0.44203  -0.43942  -0.43503  -0.42939  -0.42455
 Alpha  occ. eigenvalues --   -0.41714  -0.41331  -0.40566  -0.40172  -0.37742
 Alpha  occ. eigenvalues --   -0.37322  -0.36337  -0.35518  -0.34019  -0.33450
 Alpha  occ. eigenvalues --   -0.33089  -0.31486  -0.30478  -0.29725  -0.29014
 Alpha  occ. eigenvalues --   -0.27688  -0.26235
 Alpha virt. eigenvalues --   -0.09141  -0.05314  -0.03295  -0.02741  -0.02521
 Alpha virt. eigenvalues --   -0.02067  -0.01962  -0.00963  -0.00697  -0.00539
 Alpha virt. eigenvalues --   -0.00205   0.00496   0.00854   0.01189   0.01335
 Alpha virt. eigenvalues --    0.01367   0.01959   0.02527   0.03009   0.03286
 Alpha virt. eigenvalues --    0.03950   0.04387   0.04648   0.04759   0.05285
 Alpha virt. eigenvalues --    0.05380   0.05446   0.05746   0.06044   0.06874
 Alpha virt. eigenvalues --    0.06933   0.07412   0.07745   0.08208   0.08600
 Alpha virt. eigenvalues --    0.08685   0.08964   0.09237   0.09872   0.10210
 Alpha virt. eigenvalues --    0.10378   0.10802   0.11298   0.11457   0.12161
 Alpha virt. eigenvalues --    0.12448   0.12792   0.13301   0.13649   0.13719
 Alpha virt. eigenvalues --    0.14147   0.14496   0.14671   0.14937   0.15328
 Alpha virt. eigenvalues --    0.16041   0.16300   0.16467   0.16857   0.16998
 Alpha virt. eigenvalues --    0.17588   0.17999   0.18268   0.18959   0.19215
 Alpha virt. eigenvalues --    0.19586   0.19681   0.19721   0.20201   0.20544
 Alpha virt. eigenvalues --    0.20897   0.21057   0.21394   0.21761   0.22052
 Alpha virt. eigenvalues --    0.22700   0.22890   0.23416   0.23633   0.24216
 Alpha virt. eigenvalues --    0.24628   0.24749   0.25006   0.25206   0.25315
 Alpha virt. eigenvalues --    0.25878   0.26146   0.26378   0.26965   0.27250
 Alpha virt. eigenvalues --    0.27332   0.28206   0.28409   0.28629   0.28900
 Alpha virt. eigenvalues --    0.29554   0.29664   0.29941   0.30280   0.30396
 Alpha virt. eigenvalues --    0.31137   0.31356   0.31971   0.32322   0.32710
 Alpha virt. eigenvalues --    0.33081   0.33131   0.33279   0.34448   0.34759
 Alpha virt. eigenvalues --    0.34830   0.35474   0.36124   0.36928   0.37554
 Alpha virt. eigenvalues --    0.37846   0.38743   0.39055   0.39802   0.40374
 Alpha virt. eigenvalues --    0.41496   0.42413   0.42600   0.46593   0.47050
 Alpha virt. eigenvalues --    0.47912   0.48288   0.49858   0.50783   0.51783
 Alpha virt. eigenvalues --    0.53052   0.53912   0.54769   0.56914   0.58836
 Alpha virt. eigenvalues --    0.60091   0.61922   0.62584   0.62949   0.64242
 Alpha virt. eigenvalues --    0.64595   0.64983   0.65381   0.66443   0.68250
 Alpha virt. eigenvalues --    0.69115   0.69679   0.69910   0.70696   0.70747
 Alpha virt. eigenvalues --    0.71099   0.71483   0.71804   0.72624   0.73537
 Alpha virt. eigenvalues --    0.74450   0.74657   0.75886   0.76420   0.77759
 Alpha virt. eigenvalues --    0.79314   0.80222   0.81671   0.82398   0.83893
 Alpha virt. eigenvalues --    0.84770   0.84824   0.86870   0.87472   0.88117
 Alpha virt. eigenvalues --    0.88406   0.89099   0.90105   0.90623   0.92040
 Alpha virt. eigenvalues --    0.92743   0.93356   0.94399   0.95438   0.95547
 Alpha virt. eigenvalues --    0.96498   0.96966   0.98136   0.98479   0.99330
 Alpha virt. eigenvalues --    1.00234   1.01971   1.02459   1.03412   1.04223
 Alpha virt. eigenvalues --    1.04752   1.07328   1.07683   1.08724   1.09667
 Alpha virt. eigenvalues --    1.10051   1.10876   1.11504   1.12138   1.13081
 Alpha virt. eigenvalues --    1.15162   1.16137   1.16677   1.17118   1.18316
 Alpha virt. eigenvalues --    1.18690   1.20800   1.21013   1.22319   1.22872
 Alpha virt. eigenvalues --    1.23983   1.24125   1.25020   1.26180   1.26962
 Alpha virt. eigenvalues --    1.28229   1.29015   1.29951   1.30094   1.30521
 Alpha virt. eigenvalues --    1.31685   1.32393   1.32834   1.33067   1.33898
 Alpha virt. eigenvalues --    1.34288   1.35036   1.35648   1.36919   1.37138
 Alpha virt. eigenvalues --    1.37405   1.38944   1.39315   1.40366   1.41136
 Alpha virt. eigenvalues --    1.42612   1.43021   1.44667   1.45863   1.46659
 Alpha virt. eigenvalues --    1.47719   1.49527   1.50127   1.50276   1.50799
 Alpha virt. eigenvalues --    1.52585   1.54593   1.55479   1.57325   1.60579
 Alpha virt. eigenvalues --    1.62005   1.63978   1.66216   1.67249   1.67786
 Alpha virt. eigenvalues --    1.67941   1.69218   1.71196   1.71938   1.73449
 Alpha virt. eigenvalues --    1.74958   1.76256   1.78596   1.79339   1.79846
 Alpha virt. eigenvalues --    1.81022   1.81676   1.82569   1.83197   1.84281
 Alpha virt. eigenvalues --    1.85044   1.85585   1.86907   1.87638   1.88118
 Alpha virt. eigenvalues --    1.88410   1.89227   1.89476   1.90964   1.91216
 Alpha virt. eigenvalues --    1.91709   1.93149   1.93462   1.94294   1.95057
 Alpha virt. eigenvalues --    1.96894   1.97319   1.98743   1.99670   2.00443
 Alpha virt. eigenvalues --    2.01351   2.01696   2.01998   2.03107   2.03632
 Alpha virt. eigenvalues --    2.03764   2.04688   2.06316   2.07816   2.09451
 Alpha virt. eigenvalues --    2.09914   2.10598   2.11504   2.12863   2.13444
 Alpha virt. eigenvalues --    2.15017   2.16927   2.18200   2.20325   2.22552
 Alpha virt. eigenvalues --    2.23562   2.25974   2.26130   2.27527   2.28710
 Alpha virt. eigenvalues --    2.29773   2.30236   2.31114   2.32538   2.33524
 Alpha virt. eigenvalues --    2.34668   2.35244   2.36566   2.37087   2.40316
 Alpha virt. eigenvalues --    2.42101   2.43491   2.44401   2.44612   2.45736
 Alpha virt. eigenvalues --    2.47336   2.47450   2.49495   2.50055   2.51557
 Alpha virt. eigenvalues --    2.51696   2.52663   2.53884   2.55597   2.55977
 Alpha virt. eigenvalues --    2.57173   2.57986   2.59187   2.59400   2.60156
 Alpha virt. eigenvalues --    2.62143   2.64691   2.65995   2.66407   2.67622
 Alpha virt. eigenvalues --    2.69370   2.70672   2.72466   2.73733   2.74481
 Alpha virt. eigenvalues --    2.77382   2.78271   2.80252   2.82822   2.85367
 Alpha virt. eigenvalues --    2.85661   2.87494   2.89844   2.91304   2.92395
 Alpha virt. eigenvalues --    2.94193   2.96673   2.96774   2.98797   2.99399
 Alpha virt. eigenvalues --    3.03287   3.06051   3.08994   3.12594   3.14564
 Alpha virt. eigenvalues --    3.15782   3.20387   3.22091   3.23742   3.25598
 Alpha virt. eigenvalues --    3.25910   3.28856   3.31463   3.36622   3.37114
 Alpha virt. eigenvalues --    3.39678   3.40780   3.42102   3.42945   3.54543
 Alpha virt. eigenvalues --    3.62422   3.65323   3.73246   3.96248   4.15953
 Alpha virt. eigenvalues --    4.22390   4.26491   4.27641   4.30730   4.32146
 Alpha virt. eigenvalues --    4.32934   4.36212   4.37648   4.41687   4.43762
 Alpha virt. eigenvalues --    4.45852   4.47988   4.48889   4.55670   4.58555
 Alpha virt. eigenvalues --    4.63047   4.67145   4.72741   4.76805   4.84048
 Alpha virt. eigenvalues --    4.87472
          Condensed to atoms (all electrons):
               1          2          3          4          5          6
     1  C   23.735564  -6.010812   0.534818  -0.538381   0.238559  -5.580724
     2  C   -6.010812  13.549415  -0.563917  -1.358375   3.083020  -3.845358
     3  C    0.534818  -0.563917   8.334471   0.152822  -0.085114  -2.102036
     4  C   -0.538381  -1.358375   0.152822   9.452221  -3.517500   2.991363
     5  C    0.238559   3.083020  -0.085114  -3.517500  14.562048  -8.131838
     6  C   -5.580724  -3.845358  -2.102036   2.991363  -8.131838  30.519649
     7  H    0.046918   0.265433   0.020176   0.003725  -0.017785  -0.070741
     8  H    0.045452   0.009193   0.218317   0.055856   0.007258  -0.011738
     9  H   -0.019727   0.007041   0.065732   0.208502   0.009848   0.059948
    10  H    0.007383  -0.023193   0.007742  -0.084724   0.290297  -0.103873
    11  C   -2.333946  -2.476074  -0.596644   0.917163  -2.535277  10.150694
    12  C    0.515530   0.764139  -0.096569  -1.837277   1.268161 -11.898921
    13  S   -1.787806   1.686573   0.175525  -0.435539   0.855462  -2.707713
    14  O    0.080867  -0.056320  -0.015851   0.005069  -0.004477  -0.025471
    15  O   -0.094355   0.086348   0.134393  -0.022060   0.033036  -0.453730
    16  N   -0.879814   0.175221  -0.130791   0.185204  -0.076954   1.418816
    17  C    0.006090   0.109161   0.058642   0.022630  -0.046995   0.256127
    18  H    0.005135  -0.000593   0.000284  -0.002084  -0.003053  -0.073178
    19  H   -0.006501  -0.020246  -0.004801   0.012945  -0.007206   0.146402
    20  H    0.012117  -0.000336   0.000682   0.000054   0.000021  -0.003917
    21  O   -0.157467   0.020481  -0.009806   0.042626   0.078931  -0.625088
    22  H    0.016457   0.002075   0.000005  -0.005610  -0.006317   0.103306
    23  C   -0.320833   0.329296  -0.121509  -0.289229   0.078986  -4.337932
    24  O    0.001334  -0.004333   0.000612   0.001480  -0.002903   0.064890
    25  N   -0.122473  -0.037482  -0.010003   0.009281   0.019157  -0.147161
    26  H   -0.003511  -0.001487  -0.000208   0.000095  -0.000061   0.006949
    27  C   -0.094892  -0.024820  -0.008003   0.003998   0.007125  -0.299172
    28  N   -0.002331  -0.000413  -0.000029   0.000123   0.001289   0.001631
    29  C   -0.009849   0.000228  -0.000065   0.000315   0.005158  -0.010168
    30  C   -0.006999   0.002609  -0.000832  -0.001046   0.000606  -0.055512
    31  C   -0.000818  -0.000018  -0.000002   0.000022   0.000356  -0.001980
    32  H    0.000000   0.000000   0.000000  -0.000000  -0.000000  -0.000001
    33  H   -0.000000  -0.000000  -0.000000   0.000000   0.000000   0.000000
    34  H    0.000000   0.000000  -0.000000  -0.000000  -0.000000   0.000002
    35  O    0.000171   0.000034   0.000001  -0.000004  -0.000082   0.000539
    36  H    0.000068  -0.000006   0.000000  -0.000003  -0.000114   0.000070
               7          8          9         10         11         12
     1  C    0.046918   0.045452  -0.019727   0.007383  -2.333946   0.515530
     2  C    0.265433   0.009193   0.007041  -0.023193  -2.476074   0.764139
     3  C    0.020176   0.218317   0.065732   0.007742  -0.596644  -0.096569
     4  C    0.003725   0.055856   0.208502  -0.084724   0.917163  -1.837277
     5  C   -0.017785   0.007258   0.009848   0.290297  -2.535277   1.268161
     6  C   -0.070741  -0.011738   0.059948  -0.103873  10.150694 -11.898921
     7  H    0.497928  -0.004454  -0.000133   0.000013   0.004016  -0.003594
     8  H   -0.004454   0.522856  -0.004651  -0.000139  -0.001254   0.000655
     9  H   -0.000133  -0.004651   0.524831  -0.004516  -0.012610   0.000389
    10  H    0.000013  -0.000139  -0.004516   0.514044   0.129718   0.069536
    11  C    0.004016  -0.001254  -0.012610   0.129718  26.423389 -11.372755
    12  C   -0.003594   0.000655   0.000389   0.069536 -11.372755  25.172836
    13  S    0.071826  -0.003970  -0.000082   0.003043  -1.977800  -0.006200
    14  O   -0.001193   0.000002   0.000001   0.000001  -0.001092  -0.157745
    15  O    0.001166   0.000125  -0.000001   0.000014  -0.185308   0.396683
    16  N   -0.000714  -0.000014  -0.000014  -0.000045   1.252653  -3.328327
    17  C   -0.001277  -0.000007  -0.000005   0.000124   0.146336  -1.239850
    18  H    0.000000   0.000000   0.000000   0.000000  -0.194202   0.058715
    19  H   -0.000002  -0.000000  -0.000000  -0.000005   0.142854  -0.129559
    20  H    0.000001   0.000000  -0.000000  -0.000000   0.017789   0.018637
    21  O    0.000008   0.000004   0.000176  -0.003181  -0.060314   0.451466
    22  H   -0.000000   0.000000  -0.000000   0.000000   0.163262  -0.198426
    23  C   -0.000307  -0.000055  -0.000182   0.016967  -9.146010   7.899109
    24  O   -0.000000   0.000000   0.000000  -0.000150  -0.057784  -0.190623
    25  N   -0.000030  -0.000000   0.000000  -0.000030  -0.366844   0.175946
    26  H   -0.000000  -0.000000   0.000000   0.000000   0.025377  -0.001253
    27  C    0.000015   0.000000  -0.000000   0.000081  -1.369183   0.223966
    28  N   -0.000000  -0.000000   0.000000  -0.000000   0.023342  -0.064821
    29  C    0.000000   0.000000  -0.000000   0.000001  -0.057232  -0.216283
    30  C   -0.000000  -0.000000  -0.000000   0.000002  -0.504329   0.145294
    31  C    0.000000   0.000000  -0.000000   0.000000  -0.015066  -0.032985
    32  H    0.000000   0.000000   0.000000   0.000000  -0.000038  -0.000109
    33  H    0.000000   0.000000   0.000000  -0.000000   0.000038  -0.000021
    34  H    0.000000   0.000000  -0.000000   0.000000  -0.000025   0.000158
    35  O    0.000000   0.000000  -0.000000   0.000000   0.001586   0.017657
    36  H    0.000000   0.000000  -0.000000  -0.000000   0.001264  -0.001796
              13         14         15         16         17         18
     1  C   -1.787806   0.080867  -0.094355  -0.879814   0.006090   0.005135
     2  C    1.686573  -0.056320   0.086348   0.175221   0.109161  -0.000593
     3  C    0.175525  -0.015851   0.134393  -0.130791   0.058642   0.000284
     4  C   -0.435539   0.005069  -0.022060   0.185204   0.022630  -0.002084
     5  C    0.855462  -0.004477   0.033036  -0.076954  -0.046995  -0.003053
     6  C   -2.707713  -0.025471  -0.453730   1.418816   0.256127  -0.073178
     7  H    0.071826  -0.001193   0.001166  -0.000714  -0.001277   0.000000
     8  H   -0.003970   0.000002   0.000125  -0.000014  -0.000007   0.000000
     9  H   -0.000082   0.000001  -0.000001  -0.000014  -0.000005   0.000000
    10  H    0.003043   0.000001   0.000014  -0.000045   0.000124   0.000000
    11  C   -1.977800  -0.001092  -0.185308   1.252653   0.146336  -0.194202
    12  C   -0.006200  -0.157745   0.396683  -3.328327  -1.239850   0.058715
    13  S   17.561393   0.452156   0.522670   0.109019   0.134197   0.051442
    14  O    0.452156   8.396241  -0.202739  -0.007725   0.060346  -0.000176
    15  O    0.522670  -0.202739   8.601347  -0.263539  -0.113624   0.000955
    16  N    0.109019  -0.007725  -0.263539  10.487594   0.469803  -0.027413
    17  C    0.134197   0.060346  -0.113624   0.469803   5.535870   0.387056
    18  H    0.051442  -0.000176   0.000955  -0.027413   0.387056   0.528760
    19  H   -0.088693  -0.001359  -0.000274  -0.029272   0.399641  -0.031788
    20  H   -0.002398   0.000450  -0.001991  -0.084117   0.416179  -0.018552
    21  O    0.023110  -0.000124  -0.000535   0.009500  -0.003115   0.000717
    22  H    0.000681  -0.000036   0.000017  -0.001583  -0.000996  -0.000006
    23  C    0.283126  -0.048583   0.053552  -1.078227  -0.230233   0.106317
    24  O   -0.009007   0.000530   0.000178   0.026476   0.010600  -0.001436
    25  N   -0.062202  -0.026586   0.001314  -0.251747  -0.109729   0.009702
    26  H   -0.008017  -0.000365  -0.000190   0.008681  -0.008339  -0.000932
    27  C   -0.052683  -0.029946   0.004573  -0.336561  -0.104476   0.032069
    28  N   -0.002630   0.000078  -0.000118  -0.008840  -0.005911  -0.000378
    29  C    0.016788   0.000268  -0.000294   0.047603   0.013798   0.000839
    30  C   -0.021334  -0.002660   0.000536  -0.062966  -0.029337  -0.001316
    31  C    0.000990   0.000042  -0.000008   0.004632   0.001454  -0.000006
    32  H    0.000000   0.000000  -0.000000   0.000000   0.000001   0.000000
    33  H   -0.000000   0.000000  -0.000000  -0.000000  -0.000001   0.000000
    34  H   -0.000000  -0.000000   0.000000  -0.000001   0.000000  -0.000000
    35  O    0.000385  -0.000019   0.000000  -0.000620  -0.000183   0.000030
    36  H    0.000027  -0.000001   0.000000   0.000102  -0.000040   0.000000
              19         20         21         22         23         24
     1  C   -0.006501   0.012117  -0.157467   0.016457  -0.320833   0.001334
     2  C   -0.020246  -0.000336   0.020481   0.002075   0.329296  -0.004333
     3  C   -0.004801   0.000682  -0.009806   0.000005  -0.121509   0.000612
     4  C    0.012945   0.000054   0.042626  -0.005610  -0.289229   0.001480
     5  C   -0.007206   0.000021   0.078931  -0.006317   0.078986  -0.002903
     6  C    0.146402  -0.003917  -0.625088   0.103306  -4.337932   0.064890
     7  H   -0.000002   0.000001   0.000008  -0.000000  -0.000307  -0.000000
     8  H   -0.000000   0.000000   0.000004   0.000000  -0.000055   0.000000
     9  H   -0.000000  -0.000000   0.000176  -0.000000  -0.000182   0.000000
    10  H   -0.000005  -0.000000  -0.003181   0.000000   0.016967  -0.000150
    11  C    0.142854   0.017789  -0.060314   0.163262  -9.146010  -0.057784
    12  C   -0.129559   0.018637   0.451466  -0.198426   7.899109  -0.190623
    13  S   -0.088693  -0.002398   0.023110   0.000681   0.283126  -0.009007
    14  O   -0.001359   0.000450  -0.000124  -0.000036  -0.048583   0.000530
    15  O   -0.000274  -0.001991  -0.000535   0.000017   0.053552   0.000178
    16  N   -0.029272  -0.084117   0.009500  -0.001583  -1.078227   0.026476
    17  C    0.399641   0.416179  -0.003115  -0.000996  -0.230233   0.010600
    18  H   -0.031788  -0.018552   0.000717  -0.000006   0.106317  -0.001436
    19  H    0.534487  -0.027690  -0.001049   0.000003  -0.053982   0.000415
    20  H   -0.027690   0.483458  -0.000020   0.000000  -0.011101   0.000078
    21  O   -0.001049  -0.000020   8.455483   0.152566   0.164646  -0.011229
    22  H    0.000003   0.000000   0.152566   0.302912  -0.060983   0.066843
    23  C   -0.053982  -0.011101   0.164646  -0.060983  13.079168   0.299687
    24  O    0.000415   0.000078  -0.011229   0.066843   0.299687   8.460599
    25  N   -0.001297  -0.003894  -0.004147   0.008392   0.707849  -0.187292
    26  H    0.000083   0.000009   0.000040  -0.000054  -0.079831   0.008400
    27  C   -0.005167  -0.000723  -0.011995   0.011917  -1.272095   0.104497
    28  N    0.000030  -0.000061  -0.000006  -0.000023  -0.306759   0.005289
    29  C   -0.000125   0.000156   0.000570  -0.000976  -0.982279   0.098796
    30  C    0.000280  -0.000209   0.016795  -0.008797   0.872071  -0.040358
    31  C   -0.000002   0.000004   0.000085  -0.000035  -0.211760   0.007970
    32  H   -0.000000   0.000000   0.000000   0.000000   0.000273  -0.000002
    33  H   -0.000000   0.000000  -0.000000   0.000000   0.001671  -0.000006
    34  H   -0.000000  -0.000000  -0.000000  -0.000000  -0.001885  -0.000001
    35  O   -0.000000  -0.000002   0.000006   0.000000   0.072252  -0.001668
    36  H   -0.000000   0.000000  -0.000068   0.000036   0.029576  -0.007037
              25         26         27         28         29         30
     1  C   -0.122473  -0.003511  -0.094892  -0.002331  -0.009849  -0.006999
     2  C   -0.037482  -0.001487  -0.024820  -0.000413   0.000228   0.002609
     3  C   -0.010003  -0.000208  -0.008003  -0.000029  -0.000065  -0.000832
     4  C    0.009281   0.000095   0.003998   0.000123   0.000315  -0.001046
     5  C    0.019157  -0.000061   0.007125   0.001289   0.005158   0.000606
     6  C   -0.147161   0.006949  -0.299172   0.001631  -0.010168  -0.055512
     7  H   -0.000030  -0.000000   0.000015  -0.000000   0.000000  -0.000000
     8  H   -0.000000  -0.000000   0.000000  -0.000000   0.000000  -0.000000
     9  H    0.000000   0.000000  -0.000000   0.000000  -0.000000  -0.000000
    10  H   -0.000030   0.000000   0.000081  -0.000000   0.000001   0.000002
    11  C   -0.366844   0.025377  -1.369183   0.023342  -0.057232  -0.504329
    12  C    0.175946  -0.001253   0.223966  -0.064821  -0.216283   0.145294
    13  S   -0.062202  -0.008017  -0.052683  -0.002630   0.016788  -0.021334
    14  O   -0.026586  -0.000365  -0.029946   0.000078   0.000268  -0.002660
    15  O    0.001314  -0.000190   0.004573  -0.000118  -0.000294   0.000536
    16  N   -0.251747   0.008681  -0.336561  -0.008840   0.047603  -0.062966
    17  C   -0.109729  -0.008339  -0.104476  -0.005911   0.013798  -0.029337
    18  H    0.009702  -0.000932   0.032069  -0.000378   0.000839  -0.001316
    19  H   -0.001297   0.000083  -0.005167   0.000030  -0.000125   0.000280
    20  H   -0.003894   0.000009  -0.000723  -0.000061   0.000156  -0.000209
    21  O   -0.004147   0.000040  -0.011995  -0.000006   0.000570   0.016795
    22  H    0.008392  -0.000054   0.011917  -0.000023  -0.000976  -0.008797
    23  C    0.707849  -0.079831  -1.272095  -0.306759  -0.982279   0.872071
    24  O   -0.187292   0.008400   0.104497   0.005289   0.098796  -0.040358
    25  N    7.594014   0.255042   0.333696  -0.150445  -0.305911  -0.015456
    26  H    0.255042   0.370702   0.022951   0.017787   0.048967  -0.007142
    27  C    0.333696   0.022951  13.216382  -0.668711   0.276076  -2.102907
    28  N   -0.150445   0.017787  -0.668711   7.501088   0.728135  -0.357137
    29  C   -0.305911   0.048967   0.276076   0.728135  12.063057  -5.388966
    30  C   -0.015456  -0.007142  -2.102907  -0.357137  -5.388966  15.013983
    31  C   -0.056453   0.003431  -2.099417   0.746996   0.077074  -2.283481
    32  H    0.000037  -0.000000  -0.009171  -0.000505  -0.093181   0.033970
    33  H   -0.000001  -0.000000  -0.008399  -0.001027  -0.106553   0.042018
    34  H    0.000095   0.000000   0.019900  -0.003158  -0.030464   0.005920
    35  O    0.040062  -0.002164  -0.089960   0.067857   0.155900   0.093162
    36  H   -0.001902  -0.000107   0.153859  -0.009448   0.003502   0.194625
              31         32         33         34         35         36
     1  C   -0.000818   0.000000  -0.000000   0.000000   0.000171   0.000068
     2  C   -0.000018   0.000000  -0.000000   0.000000   0.000034  -0.000006
     3  C   -0.000002   0.000000  -0.000000  -0.000000   0.000001   0.000000
     4  C    0.000022  -0.000000   0.000000  -0.000000  -0.000004  -0.000003
     5  C    0.000356  -0.000000   0.000000  -0.000000  -0.000082  -0.000114
     6  C   -0.001980  -0.000001   0.000000   0.000002   0.000539   0.000070
     7  H    0.000000   0.000000   0.000000   0.000000   0.000000   0.000000
     8  H    0.000000   0.000000   0.000000   0.000000   0.000000   0.000000
     9  H   -0.000000   0.000000   0.000000  -0.000000  -0.000000  -0.000000
    10  H    0.000000   0.000000  -0.000000   0.000000   0.000000  -0.000000
    11  C   -0.015066  -0.000038   0.000038  -0.000025   0.001586   0.001264
    12  C   -0.032985  -0.000109  -0.000021   0.000158   0.017657  -0.001796
    13  S    0.000990   0.000000  -0.000000  -0.000000   0.000385   0.000027
    14  O    0.000042   0.000000   0.000000  -0.000000  -0.000019  -0.000001
    15  O   -0.000008  -0.000000  -0.000000   0.000000   0.000000   0.000000
    16  N    0.004632   0.000000  -0.000000  -0.000001  -0.000620   0.000102
    17  C    0.001454   0.000001  -0.000001   0.000000  -0.000183  -0.000040
    18  H   -0.000006   0.000000   0.000000  -0.000000   0.000030   0.000000
    19  H   -0.000002  -0.000000  -0.000000  -0.000000  -0.000000  -0.000000
    20  H    0.000004   0.000000   0.000000  -0.000000  -0.000002   0.000000
    21  O    0.000085   0.000000  -0.000000  -0.000000   0.000006  -0.000068
    22  H   -0.000035   0.000000   0.000000  -0.000000   0.000000   0.000036
    23  C   -0.211760   0.000273   0.001671  -0.001885   0.072252   0.029576
    24  O    0.007970  -0.000002  -0.000006  -0.000001  -0.001668  -0.007037
    25  N   -0.056453   0.000037  -0.000001   0.000095   0.040062  -0.001902
    26  H    0.003431  -0.000000  -0.000000   0.000000  -0.002164  -0.000107
    27  C   -2.099417  -0.009171  -0.008399   0.019900  -0.089960   0.153859
    28  N    0.746996  -0.000505  -0.001027  -0.003158   0.067857  -0.009448
    29  C    0.077074  -0.093181  -0.106553  -0.030464   0.155900   0.003502
    30  C   -2.283481   0.033970   0.042018   0.005920   0.093162   0.194625
    31  C    9.495813   0.427311   0.430438   0.360469  -0.219033  -0.044157
    32  H    0.427311   0.501622  -0.024939  -0.022959  -0.004662   0.000026
    33  H    0.430438  -0.024939   0.500130  -0.022751  -0.004459   0.000027
    34  H    0.360469  -0.022959  -0.022751   0.508001   0.007848   0.000121
    35  O   -0.219033  -0.004662  -0.004459   0.007848   7.761572   0.009130
    36  H   -0.044157   0.000026   0.000027   0.000121   0.009130   0.482165
 Mulliken charges:
               1
     1  C   -1.275223
     2  C    0.333519
     3  C    0.041956
     4  C    0.026336
     5  C   -0.103641
     6  C    0.765865
     7  H    0.189005
     8  H    0.166565
     9  H    0.165453
    10  H    0.180894
    11  C   -0.135695
    12  C   -0.401764
    13  S    1.217661
    14  O   -0.413587
    15  O   -0.498140
    16  N   -0.626020
    17  C   -0.133938
    18  H    0.173094
    19  H    0.171878
    20  H    0.205375
    21  O   -0.529064
    22  H    0.455366
    23  C    0.559230
    24  O   -0.644845
    25  N   -0.293502
    26  H    0.345148
    27  C    0.177176
    28  N   -0.510894
    29  C   -0.334885
    30  C    0.468913
    31  C   -0.591863
    32  H    0.192324
    33  H    0.193834
    34  H    0.178728
    35  O    0.094665
    36  H    0.190080
 Sum of Mulliken charges =  -0.00000
 Mulliken charges with hydrogens summed into heavy atoms:
               1
     1  C   -1.275223
     2  C    0.522524
     3  C    0.208520
     4  C    0.191789
     5  C    0.077253
     6  C    0.765865
    11  C   -0.135695
    12  C   -0.401764
    13  S    1.217661
    14  O   -0.413587
    15  O   -0.498140
    16  N   -0.626020
    17  C    0.416408
    21  O   -0.073697
    23  C    0.559230
    24  O   -0.644845
    25  N    0.051645
    27  C    0.177176
    28  N   -0.510894
    29  C   -0.334885
    30  C    0.658992
    31  C   -0.026977
    35  O    0.094665
 Electronic spatial extent (au):  <R**2>=           9391.5350
 Charge=             -0.0000 electrons
 Dipole moment (field-independent basis, Debye):
    X=             -1.7800    Y=              4.2442    Z=              3.1253  Tot=              5.5632
 Quadrupole moment (field-independent basis, Debye-Ang):
   XX=           -100.7565   YY=           -150.5651   ZZ=           -143.5121
   XY=              3.1876   XZ=             -4.8374   YZ=             -3.4721
 Traceless Quadrupole moment (field-independent basis, Debye-Ang):
   XX=             30.8547   YY=            -18.9539   ZZ=            -11.9009
   XY=              3.1876   XZ=             -4.8374   YZ=             -3.4721
 Octapole moment (field-independent basis, Debye-Ang**2):
  XXX=             12.8227  YYY=             31.8967  ZZZ=             13.0147  XYY=             -6.1510
  XXY=            109.4322  XXZ=            -12.3207  XZZ=             21.2195  YZZ=             -5.1813
  YYZ=              6.1663  XYZ=             -3.0851
 Hexadecapole moment (field-independent basis, Debye-Ang**3):
 XXXX=          -8024.2880 YYYY=          -1868.1321 ZZZZ=           -498.7290 XXXY=            338.9190
 XXXZ=            -66.9205 YYYX=            -43.5206 YYYZ=              4.0579 ZZZX=            -13.1186
 ZZZY=            -24.3088 XXYY=          -2018.5255 XXZZ=          -1852.4602 YYZZ=           -393.4460
 XXYZ=             22.5914 YYXZ=            -15.1052 ZZXY=              8.6448
 N-N= 2.119600604308D+03 E-N=-7.701699240606D+03  KE= 1.466428293403D+03
 Calling FoFJK, ICntrl=      2127 FMM=F ISym2X=0 I1Cent= 0 IOpClX= 0 NMat=1 NMatS=1 NMatT=0.
 ***** Axes restored to original set *****
 -------------------------------------------------------------------
 Center     Atomic                   Forces (Hartrees/Bohr)
 Number     Number              X              Y              Z
 -------------------------------------------------------------------
      1        6          -0.000598807   -0.000319864    0.000614971
      2        6          -0.002472616   -0.005153101    0.000582948
      3        6          -0.005722200   -0.001502577   -0.000062750
      4        6          -0.003769808    0.004602742   -0.000609656
      5        6           0.000764156    0.006033355   -0.000715727
      6        6           0.000963142    0.000108365   -0.000083096
      7        1           0.000107912    0.001631315   -0.000201625
      8        1           0.000750144    0.000126646    0.000026293
      9        1           0.000516893   -0.000564584    0.000083086
     10        1          -0.000689573   -0.001412536    0.000145825
     11        6          -0.002255062   -0.004750986   -0.000866657
     12        6           0.000512602    0.001104173    0.000240278
     13       16          -0.001940418    0.005428508   -0.002639142
     14        8           0.004108125   -0.000348367    0.013106659
     15        8          -0.004027547   -0.012376734   -0.004678611
     16        7           0.004192247   -0.000499221   -0.000617122
     17        6           0.000294551   -0.001633812   -0.006926831
     18        1          -0.001180435   -0.000385972    0.000278960
     19        1           0.001233800   -0.001057464    0.000057162
     20        1           0.000167506    0.001173080    0.000098309
     21        8           0.001076200    0.008848495    0.001767245
     22        1           0.004058584   -0.000892856   -0.000307711
     23        6          -0.002838589   -0.009118513   -0.001079761
     24        8           0.001563198    0.013163239    0.001390017
     25        7          -0.000985732   -0.002614188    0.000168973
     26        1           0.000205265    0.001485799    0.000000286
     27        6          -0.003724788   -0.000740427   -0.000292450
     28        7          -0.005268505   -0.005585112   -0.000619849
     29        6           0.001753136    0.003888957    0.000317283
     30        6          -0.000982081    0.005648199    0.000306576
     31        6           0.005675102    0.002872557    0.000516161
     32        1           0.000158618    0.000217151    0.000049606
     33        1           0.000167239    0.000213514   -0.000003976
     34        1           0.000231269   -0.000434858   -0.000016655
     35        8           0.007436466   -0.005081613    0.000078195
     36        1           0.000520007   -0.002073311   -0.000107216
 -------------------------------------------------------------------
 Cartesian Forces:  Max     0.013163239 RMS     0.003477782

 GradGradGradGradGradGradGradGradGradGradGradGradGradGradGradGradGradGrad
 Berny optimization.
 FormGI is forming the generalized inverse of G from B-inverse, IUseBI=4.
 Internal  Forces:  Max     0.013790937 RMS     0.002950594
 Search for a local minimum.
 Step number   1 out of a maximum of  198
 All quantities printed in internal units (Hartrees-Bohrs-Radians)
 Mixed Optimization -- RFO/linear search
 Second derivative matrix not updated -- first step.
 ITU=  0
     Eigenvalues ---    0.00576   0.00916   0.01138   0.01219   0.01422
     Eigenvalues ---    0.01494   0.01602   0.01626   0.01693   0.01756
     Eigenvalues ---    0.01803   0.01895   0.01921   0.01994   0.02024
     Eigenvalues ---    0.02051   0.02093   0.02115   0.02118   0.02134
     Eigenvalues ---    0.02140   0.02152   0.02164   0.02259   0.02342
     Eigenvalues ---    0.02566   0.03407   0.07155   0.07387   0.07435
     Eigenvalues ---    0.07650   0.09410   0.11544   0.11616   0.12419
     Eigenvalues ---    0.15966   0.15999   0.16000   0.16000   0.16000
     Eigenvalues ---    0.16000   0.16000   0.16000   0.16000   0.16000
     Eigenvalues ---    0.16000   0.16000   0.16000   0.18441   0.19960
     Eigenvalues ---    0.22000   0.22013   0.22589   0.23614   0.23813
     Eigenvalues ---    0.24544   0.24976   0.24991   0.24995   0.25000
     Eigenvalues ---    0.25000   0.25000   0.25000   0.25000   0.26265
     Eigenvalues ---    0.33259   0.33595   0.33988   0.34075   0.34225
     Eigenvalues ---    0.34225   0.34548   0.34601   0.34869   0.34890
     Eigenvalues ---    0.35327   0.35337   0.35409   0.35513   0.36258
     Eigenvalues ---    0.36451   0.37809   0.39339   0.40540   0.41886
     Eigenvalues ---    0.44046   0.44589   0.45098   0.45517   0.46132
     Eigenvalues ---    0.46795   0.46946   0.47040   0.48274   0.49124
     Eigenvalues ---    0.51912   0.52304   0.58584   0.60067   0.82522
     Eigenvalues ---    0.89610   0.90949
 RFO step:  Lambda=-3.65337955D-03 EMin= 5.75878592D-03
 Linear search not attempted -- first point.
 Iteration  1 RMS(Cart)=  0.04544878 RMS(Int)=  0.00026408
 Iteration  2 RMS(Cart)=  0.00058738 RMS(Int)=  0.00002151
 Iteration  3 RMS(Cart)=  0.00000009 RMS(Int)=  0.00002151
 Variable       Old X    -DE/DX   Delta X   Delta X   Delta X     New X
                                 (Linear)    (Quad)   (Total)
    R1        2.63019  -0.00585   0.00000  -0.01244  -0.01244   2.61774
    R2        2.66187  -0.00593   0.00000  -0.01326  -0.01327   2.64860
    R3        3.39175  -0.00712   0.00000  -0.02602  -0.02603   3.36573
    R4        2.64025  -0.00484   0.00000  -0.01029  -0.01029   2.62996
    R5        2.05016   0.00160   0.00000   0.00448   0.00448   2.05465
    R6        2.64339  -0.00486   0.00000  -0.01030  -0.01030   2.63309
    R7        2.05131   0.00076   0.00000   0.00213   0.00213   2.05344
    R8        2.63563  -0.00467   0.00000  -0.00987  -0.00987   2.62576
    R9        2.05147   0.00077   0.00000   0.00215   0.00215   2.05362
   R10        2.65219  -0.00610   0.00000  -0.01357  -0.01357   2.63863
   R11        2.04851   0.00156   0.00000   0.00436   0.00436   2.05286
   R12        2.78232  -0.00535   0.00000  -0.01491  -0.01491   2.76741
   R13        2.60066  -0.00289   0.00000  -0.00589  -0.00588   2.59477
   R14        2.52079  -0.00909   0.00000  -0.01542  -0.01542   2.50537
   R15        2.71618  -0.00527   0.00000  -0.01323  -0.01321   2.70297
   R16        2.76980  -0.00426   0.00000  -0.01164  -0.01164   2.75816
   R17        2.76199  -0.01370   0.00000  -0.01500  -0.01500   2.74699
   R18        2.76813  -0.01379   0.00000  -0.01533  -0.01533   2.75280
   R19        3.22218  -0.00889   0.00000  -0.02531  -0.02531   3.19687
   R20        2.80503  -0.00671   0.00000  -0.01949  -0.01949   2.78554
   R21        2.06415   0.00124   0.00000   0.00356   0.00356   2.06771
   R22        2.07351   0.00146   0.00000   0.00426   0.00426   2.07776
   R23        2.05888   0.00119   0.00000   0.00338   0.00338   2.06225
   R24        1.89779  -0.00402   0.00000  -0.00850  -0.00850   1.88929
   R25        2.36584  -0.01308   0.00000  -0.01578  -0.01578   2.35005
   R26        2.57984  -0.00501   0.00000  -0.00958  -0.00958   2.57026
   R27        1.91863   0.00144   0.00000   0.00316   0.00316   1.92179
   R28        2.62976  -0.00591   0.00000  -0.01248  -0.01248   2.61728
   R29        2.49292  -0.00506   0.00000  -0.00801  -0.00801   2.48490
   R30        2.69506  -0.00634   0.00000  -0.01453  -0.01453   2.68053
   R31        2.64280  -0.00912   0.00000  -0.02023  -0.02023   2.62257
   R32        2.57838  -0.00603   0.00000  -0.01129  -0.01129   2.56709
   R33        2.81319  -0.00687   0.00000  -0.02024  -0.02024   2.79296
   R34        2.55666  -0.00706   0.00000  -0.01322  -0.01322   2.54344
   R35        2.03382   0.00214   0.00000   0.00582   0.00582   2.03963
   R36        2.06953   0.00000   0.00000   0.00001   0.00001   2.06954
   R37        2.06953  -0.00000   0.00000  -0.00001  -0.00001   2.06952
   R38        2.06327   0.00045   0.00000   0.00129   0.00129   2.06455
    A1        2.12758   0.00090   0.00000   0.00335   0.00336   2.13094
    A2        2.09878  -0.00121   0.00000  -0.00393  -0.00392   2.09486
    A3        2.05593   0.00031   0.00000   0.00052   0.00050   2.05643
    A4        2.07607  -0.00070   0.00000  -0.00322  -0.00323   2.07284
    A5        2.09035  -0.00004   0.00000  -0.00080  -0.00079   2.08955
    A6        2.11677   0.00074   0.00000   0.00402   0.00402   2.12079
    A7        2.09604  -0.00008   0.00000   0.00019   0.00019   2.09624
    A8        2.08918   0.00007   0.00000   0.00009   0.00009   2.08927
[...]
 5,0.00001776,-0.00004241,0.00000066,0.00000927,0.00000734,0.00002168,-
 0.00007892,0.00007259,0.00007985,0.00002844,0.00000082,-0.00009185,-0.
 00016752,-0.00072119,0.00780480,-0.00002294,-0.00037572,0.00378820,-0.
 01154339,-0.00498133,-0.07073742,-0.00047134,-0.00024668,0.00750600,-0
 .00205958,0.00184749,0.54276594,-0.00000782,-0.00000049,0.00000841,-0.
 00001113,0.00001154,-0.00000519,-0.00000595,-0.00000858,0.00000049,0.0
 0000481,-0.00000162,-0.00000087,-0.00000990,-0.00000666,-0.00000014,0.
 00000363,0.00000143,-0.00000013,0.00000030,-0.00000072,0.00000016,-0.0
 0000254,-0.00000025,0.00000059,-0.00000325,0.00000175,0.00000004,0.000
 00414,-0.00000139,0.00000248,0.00004585,-0.00011736,-0.00001700,-0.000
 12888,0.00005608,0.00000449,0.00007341,0.00006524,-0.00003609,-0.00001
 927,-0.00001202,0.00000934,-0.00002345,-0.00003291,-0.00000479,-0.0000
 7910,-0.00001696,-0.00000403,0.00000632,-0.00000138,0.00002895,0.00000
 437,0.00000116,0.00001267,-0.00000689,0.00000328,-0.00000177,-0.000000
 60,-0.00000235,-0.00000062,-0.00004261,0.00007927,0.00001246,0.0000658
 7,-0.00004246,-0.00000210,0.00036107,-0.00016894,0.00002558,-0.0001853
 0,0.00010493,-0.00001667,-0.00021807,-0.00030753,-0.00008834,-0.000048
 63,0.00003967,0.00002078,-0.00015408,0.00020665,-0.00144586,-0.0018293
 8,-0.00067502,-0.00078279,-0.02156256,0.00859693,0.02426801,-0.0007972
 9,-0.00264617,-0.00046126,-0.12217976,0.03627503,0.11887419,0.13589671
 ,-0.00000212,-0.00000088,0.00000376,-0.00000202,0.00000172,-0.00000150
 ,-0.00000119,-0.00000155,0.00000097,0.00000102,-0.00000082,-0.00000023
 ,-0.00000125,-0.00000039,0.00000103,0.00000082,-0.00000061,-0.00000048
 ,-0.00000015,-0.00000012,-0.00000029,-0.00000053,-0.00000006,-0.000000
 22,-0.00000038,0.00000023,-0.00000047,0.00000098,-0.00000065,-0.000000
 61,0.00000944,-0.00001779,-0.00000109,-0.00002030,0.00000983,-0.000003
 76,0.00001389,0.00002518,-0.00002463,-0.00000085,-0.00000550,0.0000121
 4,-0.00000457,-0.00001220,0.00000242,-0.00001667,-0.00000891,0.0000062
 7,0.00000281,-0.00000010,-0.00000091,0.00000009,0.00000223,0.00000242,
 0.00000025,0.00000019,0.00000012,-0.00000084,-0.00000015,0.00000037,-0
 .00001191,0.00001017,0.00000732,0.00001545,-0.00000899,-0.00000961,0.0
 0007877,0.00002346,0.00000773,-0.00006226,0.00001061,0.00002586,0.0000
 6937,-0.00006749,-0.00005197,-0.00000129,0.00001108,-0.00000599,0.0000
 5341,-0.00040349,0.00006179,-0.00166814,-0.00040627,-0.00073623,-0.006
 52950,0.00269815,0.01186191,-0.00033344,-0.00001991,-0.00031975,0.0357
 4862,-0.06233328,-0.05587745,-0.03876261,0.06163243,0.00000322,0.00000
 016,-0.00000250,0.00000503,-0.00000497,0.00000172,0.00000137,0.0000030
 8,-0.00000020,-0.00000214,0.00000104,-0.00000024,0.00000296,0.00000261
 ,0.00000022,-0.00000056,0.00000209,0.00000245,-0.00000033,0.00000029,0
 .00000002,0.00000129,0.00000016,-0.00000016,0.00000106,-0.00000090,0.0
 0000003,-0.00000217,0.00000081,-0.00000078,-0.00002586,0.00002493,0.00
 000358,0.00004076,-0.00001458,-0.00000645,-0.00003173,-0.00003185,0.00
 000999,0.00000940,0.00000769,-0.00000294,0.00001078,0.00001751,0.00000
 225,0.00002383,0.00001163,-0.00000213,-0.00000464,0.00000043,-0.000002
 47,-0.00000029,-0.00000125,-0.00000242,0.00000133,-0.00000128,-0.00000
 008,-0.00000007,0.00000041,-0.00000030,0.00002008,-0.00001295,-0.00000
 159,-0.00002497,0.00000753,0.00000065,-0.00010459,-0.00002193,-0.00000
 776,0.00006444,0.00001836,0.00000489,-0.00001350,-0.00004053,0.0000076
 9,-0.00002518,-0.00001503,0.00001542,-0.00037930,0.00014505,-0.0003192
 8,0.00040207,0.00035525,-0.00007531,-0.00220005,0.00209451,0.00505287,
 -0.00104728,-0.00005262,-0.00048182,0.11810656,-0.05645175,-0.21798233
 ,-0.12806468,0.06059793,0.23227560,-0.00000986,0.00000035,0.00001422,-
 0.00001082,0.00000969,-0.00000436,-0.00000544,-0.00000833,-0.00000013,
 0.00000407,-0.00000144,0.00000021,-0.00001049,-0.00000687,0.00000128,0
 .00000456,0.00000075,-0.00000193,0.00000008,-0.00000085,-0.00000052,-0
 .00000228,-0.00000029,-0.00000002,-0.00000303,0.00000145,-0.00000064,0
 .00000401,-0.00000162,0.00000081,0.00004202,-0.00012124,-0.00002375,-0
 .00012820,0.00005596,0.00001869,0.00007164,0.00006958,-0.00008336,-0.0
 0000889,-0.00001241,0.00003566,-0.00002221,-0.00003024,0.00000822,-0.0
 0008136,-0.00001938,0.00001341,0.00000997,-0.00000162,0.00001429,0.000
 00274,-0.00000028,0.00001049,-0.00000533,0.00000323,0.00000010,0.00000
 123,-0.00000101,-0.00000034,-0.00003768,0.00008246,0.00002224,0.000061
 82,-0.00004037,-0.00001538,0.00035360,-0.00017145,-0.00003205,-0.00017
 819,0.00010483,0.00001728,-0.00023656,-0.00031545,0.00005728,-0.000050
 64,0.00004267,-0.00004786,-0.00030751,-0.00000871,0.00146240,-0.001844
 69,-0.00069956,0.00051693,-0.01910352,0.01176724,-0.02534586,-0.000866
 06,-0.00261611,0.00006129,-0.09967246,0.04317289,-0.10268121,0.0083372
 1,-0.00672279,0.01412645,0.11154129,-0.00000156,-0.00000108,0.00000019
 ,-0.00000217,0.00000142,-0.00000065,-0.00000036,-0.00000085,-0.0000000
 6,0.00000055,0.00000002,-0.00000036,-0.00000057,-0.00000156,-0.0000006
 7,-0.00000046,-0.00000061,-0.00000186,-0.00000007,0.00000009,0.0000003
 4,-0.00000043,0.00000004,0.00000035,-0.00000044,0.00000024,0.00000044,
 0.00000047,-0.00000032,0.00000128,0.00000750,-0.00000647,0.00000040,-0
 .00001335,0.00000634,0.00000537,0.00001147,0.00001747,0.00000674,-0.00
 000456,-0.00000520,-0.00000477,-0.00000383,-0.00001062,-0.00000454,-0.
 00001202,-0.00000574,-0.00000574,0.00000093,0.00000118,0.00000750,0.00
 000148,0.00000023,0.00000153,-0.00000157,0.00000043,-0.00000083,-0.000
 00110,-0.00000059,-0.00000020,-0.00001105,0.00000408,-0.00000512,0.000
 01309,-0.00000773,0.00000730,0.00006498,0.00002149,0.00000651,-0.00005
 280,0.00001370,-0.00002793,0.00006217,-0.00007556,0.00004951,-0.000003
 94,0.00000846,0.00000135,0.00001186,-0.00040547,-0.00007632,-0.0016711
 6,-0.00043088,0.00054584,-0.00535631,0.00444217,-0.01240475,-0.0004534
 9,-0.00001585,0.00028407,0.04256449,-0.07907655,0.07864370,-0.00423463
 ,0.00255893,-0.00746496,-0.04617265,0.07981851,-0.00000412,0.00000172,
 0.00000486,-0.00000575,0.00000469,-0.00000221,-0.00000185,-0.00000429,
 0.00000012,0.00000249,-0.00000152,0.00000060,-0.00000448,-0.00000274,-
 0.00000087,0.00000022,-0.00000274,-0.00000160,0.00000022,-0.00000043,-
 0.00000012,-0.00000148,-0.00000020,0.00000005,-0.00000135,0.00000094,-
 0.00000019,0.00000260,-0.00000104,0.00000088,0.00002750,-0.00003778,-0
 .00000516,-0.00005209,0.00002153,0.00000715,0.00003932,0.00003914,-0.0
 0001833,-0.00001080,-0.00000941,0.00000563,-0.00001311,-0.00002094,-0.
 00000156,-0.00003092,-0.00001346,0.00000330,0.00000522,-0.00000014,0.0
 0000459,0.00000072,0.00000139,0.00000368,-0.00000175,0.00000158,-0.000
 00014,0.,-0.00000068,0.00000008,-0.00002415,0.00002041,0.00000369,0.00
 003183,-0.00001211,-0.00000152,0.00014136,0.00001010,0.00000409,-0.000
 08615,-0.00000621,-0.00000716,0.00000428,-0.00000267,0.00002627,0.0000
 1802,0.00001880,0.00001405,0.00035491,-0.00016593,-0.00018402,-0.00077
 023,-0.00044504,-0.00003538,-0.00101601,-0.00105802,0.00091951,0.00098
 706,-0.00016267,-0.00034246,-0.10189689,0.07932799,-0.22379462,-0.0120
 1465,0.00956459,-0.01881403,0.11132690,-0.08549923,0.23859821,0.000000
 10,-0.00000131,0.00000044,0.00000122,0.00000060,-0.00000080,-0.0000006
 9,-0.00000019,-0.00000004,-0.00000021,0.00000111,-0.00000012,-0.000001
 77,-0.00000016,0.00000100,0.00000473,0.00000471,-0.00000023,0.00000006
 ,0.,-0.00000008,0.00000023,0.00000019,0.00000005,-0.00000003,-0.000000
 19,-0.00000006,-0.00000122,0.00000046,-0.00000029,-0.00001442,-0.00004
 890,-0.00001082,-0.00001564,0.00002897,0.00000479,0.00000093,-0.000008
 04,-0.00000095,-0.00000017,0.00000355,0.00000129,0.00000100,0.00000620
 ,0.00000168,0.00001090,0.00001458,0.00000063,0.00000211,0.00000122,-0.
 00000282,0.00000056,-0.00000361,0.00000218,-0.00000213,-0.00000014,0.0
 0000117,0.00000188,0.00000092,0.00000088,0.00003074,0.00003962,0.00000
 824,-0.00003488,-0.00000374,0.00000015,0.00000685,-0.00039507,-0.00003
 023,0.00017291,0.00021881,0.00002072,-0.00024863,0.00045719,0.00001801
 ,0.00010648,-0.00004050,0.00000076,0.00070254,-0.00072258,0.00000687,-
 0.00051226,-0.00124432,-0.00015719,0.00537758,-0.03208984,-0.00162512,
 0.00107485,0.00096795,0.00011730,-0.04735497,0.01521321,0.00080787,-0.
 00065778,0.01667402,-0.00112477,-0.00094902,0.01385442,0.00279637,0.04
 985448,-0.00000490,0.00000075,0.00000664,-0.00000715,0.00000793,-0.000
 00351,-0.00000388,-0.00000571,0.00000009,0.00000345,-0.00000022,0.0000
 0007,-0.00000780,-0.00000477,0.00000068,0.00000524,0.00000205,-0.00000
 237,0.00000057,-0.00000088,-0.00000022,-0.00000172,-0.00000020,0.00000
 023,-0.00000242,0.00000114,-0.00000034,0.00000203,-0.00000096,0.000000
 88,0.00002306,-0.00011662,-0.00001980,-0.00010154,0.00005916,0.0000121
 7,0.00005044,0.00002671,-0.00002986,-0.00001319,-0.00000226,0.00001084
 ,-0.00001564,-0.00001085,0.00000225,-0.00003555,-0.00000142,0.00000426
 ,0.00000796,-0.00000135,0.00000612,0.00000178,-0.00000324,0.00000738,-
 0.00000533,0.00000240,0.00000122,0.00000303,0.,0.00000023,-0.00000552,
 0.00008472,0.00001684,0.00001800,-0.00002926,-0.00000584,0.00019907,-0
 .00039839,-0.00002740,-0.00000829,0.00022825,0.00001699,-0.00038470,0.
 00036267,0.00001158,0.00006800,0.00000681,0.00000061,0.00036642,-0.000
 57089,-0.00000227,0.00030971,0.00012550,-0.00003354,0.00389026,-0.0111
 3349,-0.00034133,0.00052815,0.00110097,0.00010484,0.01088921,-0.322191
 70,-0.01681381,-0.00052056,-0.00505923,0.00106473,-0.00047054,-0.00807
 721,-0.00210984,-0.01118634,0.34534408,0.00000110,0.00000046,-0.000002
 81,-0.00000027,0.00000092,-0.00000013,-0.00000020,-0.00000046,-0.00000
 040,0.00000030,0.00000021,-0.00000048,-0.00000051,-0.00000079,-0.00000
 129,-0.00000073,0.00000049,-0.00000130,0.00000011,0.00000005,0.0000005
 8,-0.00000011,0.00000006,0.00000056,-0.00000031,0.00000018,0.00000080,
 -0.00000005,0.00000023,0.00000196,0.00000044,-0.00000229,0.00000391,-0
 .00000395,0.00000408,0.00000472,0.00000386,-0.00000199,0.00002719,-0.0
 0000593,-0.00000076,-0.00001581,-0.00000119,-0.00000108,-0.00000720,0.
 00000110,0.00000083,-0.00000996,-0.00000091,0.00000065,0.00000896,0.00
 000174,-0.00000153,0.00000101,-0.00000236,0.00000009,-0.00000070,-0.00
 000022,-0.00000047,-0.00000065,-0.00000117,0.00000183,-0.00001114,0.00
 000067,-0.00000222,0.00001764,0.00000987,-0.00004191,0.00001117,0.0000
 0979,0.00002631,-0.00004911,-0.00003124,0.00005075,-0.00007382,0.00001
 136,-0.00000224,0.00001306,0.00006776,-0.00004955,-0.00037512,-0.00003
 905,-0.00010830,0.00086502,0.00059773,-0.00217114,-0.00274120,0.000109
 04,0.00014745,-0.00026114,0.00054356,-0.01660636,-0.04488477,-0.000771
 35,-0.02479264,-0.00022233,0.00048160,0.02536844,0.00299021,-0.0003179
 5,0.01833458,0.04369997,-0.00014779,-0.00000431,0.00020493,-0.00025809
 ,0.00017963,-0.00011229,-0.00015653,-0.00019831,-0.00000060,0.00010570
 ,-0.00006425,0.00001284,-0.00025487,-0.00018589,0.00000060,0.00021383,
 0.00010076,-0.00006998,-0.00001849,-0.00001369,-0.00000290,-0.00004823
 ,-0.00001149,0.00001026,-0.00007095,0.00003295,-0.00000386,0.00010151,
 -0.00004143,0.00004579,0.00091922,-0.00376139,-0.00062890,-0.00379198,
 0.00286101,0.00059899,0.00092877,0.00199142,-0.00113524,-0.00006745,-0
 .00047241,0.00051094,-0.00033875,-0.00093652,-0.00001642,-0.00077460,-
 0.00062323,0.00001536,0.00005423,-0.00001690,0.00040692,0.00000125,0.0
 0012564,0.00019074,-0.00007954,0.00001877,-0.00002152,-0.00008116,-0.0
 0006569,-0.00003803,-0.00034739,0.00235981,0.00045231,0.00071814,-0.00
 067400,-0.00010345,0.00576539,-0.01628012,-0.00124917,0.00124580,0.006
 45922,0.00036718,-0.02104687,0.01549111,-0.00060948,0.00061244,0.00155
 822,0.00025192,-0.08306066,0.02416990,-0.00250448,-0.20423678,0.039448
 84,-0.00393075,-0.10743248,-0.00803303,-0.00266259,-0.01747518,0.01099
 767,-0.00047403,0.00127179,-0.04486226,-0.00285777,0.00304976,0.001576
 42,0.00024956,0.00295316,0.00152483,0.00019392,-0.00719403,-0.00310689
 ,-0.00059683,0.43352820,-0.00001771,-0.00001252,0.00001757,-0.00001092
 ,0.00003310,-0.00001463,-0.00002283,-0.00002396,0.00000014,0.00001890,
 0.00001520,0.00001013,-0.00004526,-0.00000847,0.00000379,0.00011682,0.
 00002708,-0.00007208,0.00000576,-0.00000335,-0.00000202,-0.00000331,0.
 00000061,0.00000137,-0.00000927,0.00000301,-0.00000258,-0.00000646,0.0
 0000289,0.00000108,-0.00006364,-0.00094938,-0.00012627,-0.00036645,0.0
 0019050,0.00016096,0.00017823,-0.00011662,-0.00002053,-0.00006100,0.00
 006938,0.00001449,-0.00003491,0.00010541,0.00002411,0.00006640,0.00026
 863,-0.00001344,0.00004290,0.00001583,-0.00003307,0.00000162,-0.000080
 61,0.00005006,-0.00005009,0.00000740,0.00002263,0.00005247,0.00001615,
 0.00001534,0.00043250,0.00081692,0.00014562,-0.00044325,-0.00001330,0.
 00002704,0.00143619,-0.00860862,-0.00091224,0.00289496,0.00543038,0.00
 052263,-0.00673795,0.00379129,-0.00060571,0.00179362,-0.00107214,0.000
 05572,0.02834561,-0.04713170,-0.00208128,-0.08779328,-0.06806114,-0.00
 477307,0.02535233,-0.28245448,-0.01351398,0.06448551,-0.07025753,-0.00
 253797,-0.00789922,-0.02327574,-0.00177542,0.00215455,0.00135133,-0.00
 024795,0.00208199,0.00124098,0.00057575,-0.00216881,0.00038437,-0.0001
 3558,-0.02808894,0.48710245,-0.00001247,-0.00001573,0.00002450,-0.0000
 2616,0.00001483,-0.00002493,-0.00001421,-0.00002417,0.00000188,0.00002
 077,-0.00000929,-0.00000383,-0.00001094,0.00000352,-0.00001014,0.00007
 611,-0.00005688,0.00014120,-0.00000171,-0.00000080,-0.00000148,-0.0000
 0261,-0.00000072,0.00000350,-0.00000309,0.00000284,-0.00000113,0.00000
 436,-0.00000318,0.00000725,0.00009250,-0.00025130,-0.00023714,-0.00025
 451,0.00017411,-0.00088287,-0.00001005,0.00014023,-0.00016510,0.000045
 64,-0.00003808,0.00009344,-0.00000941,-0.00005068,0.00003090,-0.000042
 74,-0.00004603,0.00013527,0.00001822,0.00000489,-0.00003519,0.00000589
 ,-0.00001874,0.00002627,-0.00001182,0.00000574,0.00001705,0.00000989,0
 .00000537,0.00000154,0.00004665,0.00025647,0.00004599,-0.00004598,-0.0
 0001141,-0.00005855,0.00039900,-0.00152668,0.00327404,0.00023739,0.000
 72030,-0.00058744,-0.00223927,0.00052139,0.00903242,0.00006501,-0.0000
 4119,-0.00164677,-0.00169414,-0.00250372,0.00542634,-0.01283215,0.0011
 3145,-0.05917578,-0.00021661,-0.01457523,-0.06807883,0.00290352,-0.005
 20929,0.01473630,-0.00042507,-0.00362419,-0.00133306,-0.00000111,-0.00
 013923,0.00036348,0.00051103,0.00039943,0.00045753,-0.00051921,-0.0001
 6199,0.00064611,0.01427257,0.02557924,0.08915898,0.00001633,-0.0000164
 6,-0.00001838,0.00003564,-0.00001995,0.00000668,0.00001798,0.00002377,
 -0.00000114,-0.00001211,0.00001557,-0.00000356,0.00002146,0.00002407,0
 .00000915,0.00000910,0.00002154,0.00000014,0.00000333,0.00000143,0.000
 00049,0.00000685,0.00000237,-0.00000010,0.00000901,-0.00000511,0.00000
 022,-0.00002047,0.00000821,-0.00000696,-0.00028958,0.00007677,0.000009
 10,0.00029740,0.00020525,0.00000051,-0.00013120,-0.00023979,0.00017291
 ,0.00001085,0.00007122,-0.00007114,0.00006622,0.00014765,-0.00000072,0
 .00023235,0.00022213,0.00000203,0.00001829,0.00002121,-0.00008320,-0.0
 0000417,-0.00002676,-0.00000879,-0.00000137,-0.00000948,0.00001031,0.0
 0001154,0.00001444,0.00001178,0.00039354,-0.00001347,-0.00001446,-0.00
 055821,0.00022432,0.00004698,-0.00085455,-0.00522669,-0.00045821,-0.00
 151693,0.00406980,0.00021070,-0.00098412,0.00279829,0.00021840,-0.0000
 8768,-0.00010322,0.00000820,0.01194640,-0.01734102,-0.00063316,-0.0031
 6276,-0.00567815,-0.00070353,0.00278439,0.02225182,0.00187872,-0.06971
 880,0.07988308,0.00372626,0.00104635,-0.00006414,0.00016202,0.00012077
 ,-0.00010257,-0.00001809,0.00014684,-0.00011970,0.00000283,-0.00036230
 ,-0.00048444,-0.00006570,-0.00458738,0.00436297,-0.00033528,0.06509702
 ,0.00000300,-0.00000190,-0.00000371,0.00000493,-0.00000675,0.00000179,
 0.00000357,0.00000390,0.00000073,-0.00000227,-0.00000037,-0.00000116,0
 .00000680,0.00000890,-0.00000127,-0.00000525,0.00000216,0.00000956,-0.
 00000013,0.00000060,0.00000010,0.00000101,0.00000005,-0.00000025,0.000
 00246,-0.00000041,0.00000007,-0.00000050,0.00000225,-0.00000129,-0.000
 05233,0.00007246,0.00000941,0.00012524,0.00004818,-0.00000773,-0.00003
 198,-0.00002419,0.00000317,0.00001210,0.00000676,0.00000216,0.00001353
 ,0.00002009,0.00000320,0.00003145,0.00002319,-0.00000966,-0.00000796,0
 .00000142,-0.00000199,0.,-0.00000719,-0.00000197,0.00000150,-0.0000003
 9,0.00000062,0.00000335,0.00000132,0.00000034,0.00017136,-0.00011908,-
 0.00002236,-0.00011190,0.00019759,0.00002487,-0.00082862,-0.00083243,-
 0.00012879,0.00358086,-0.00088645,0.00017613,-0.00005492,0.00043394,0.
 00013431,0.00000677,-0.00010999,0.00000130,0.00995384,-0.00962142,-0.0
 0013195,-0.00060407,-0.00238106,-0.00051187,-0.00339917,-0.00032957,0.
 00006311,0.07719016,-0.34663961,-0.01947553,0.00001835,0.00025062,0.00
 024532,-0.00003692,0.00001284,0.00000637,0.00003011,-0.00001350,-0.000
 03152,0.00042599,-0.00012886,-0.00001827,-0.00145544,0.00119667,-0.000
 65126,-0.08499496,0.35882025,0.00000963,0.00001040,-0.00001817,0.00000
 564,-0.00000103,0.00000352,0.00000018,0.00000306,0.00000200,-0.0000019
 3,-0.00000015,-0.00000500,0.00000131,-0.00000320,0.00000048,-0.0000223
 5,0.00000861,-0.00003336,0.,0.00000024,0.00000219,0.00000026,0.0000004
 4,0.00000074,-0.00000019,0.00000004,0.00000250,-0.00000190,0.00000169,
 0.00000877,-0.00001172,0.00004301,0.00001870,0.00000539,-0.00001537,0.
 00034033,0.00000717,-0.00003762,0.00015489,-0.00003491,-0.00000185,-0.
 00008860,-0.00000279,0.00000526,-0.00003919,0.00002783,0.00000484,-0.0
 0004081,-0.00001530,0.00001122,0.00005123,0.00000592,-0.00001263,0.000
 00006,-0.00000934,-0.00000262,-0.00000673,0.00000015,-0.00000143,-0.00
 000473,0.00000904,-0.00004047,-0.00008403,-0.00000669,0.00001500,0.000
 16848,-0.00009717,-0.00031438,0.00042366,0.00018993,0.00015048,-0.0012
 2270,0.00002304,0.00026788,-0.00152522,0.00001288,-0.00001929,-0.00012
 311,0.00125464,-0.00119958,-0.00257126,-0.00036595,-0.00070118,0.00484
 360,-0.00000488,0.00137094,-0.00294290,0.00364999,-0.01963767,-0.02626
 119,0.00020595,0.00021020,-0.00310593,0.00045083,-0.00018960,0.0001842
 7,-0.00046338,0.00016770,0.00016489,0.00000027,-0.00005111,0.00036647,
 -0.00076654,-0.00035984,0.00861829,-0.00405502,0.02031802,0.02271788\\
 0.00000217,-0.00001111,0.00000663,-0.00001041,-0.00001387,0.00000073,-
 0.00001256,0.00000236,-0.00000570,-0.00000257,0.00001209,0.00000009,-0
 .00000063,0.00001296,0.,0.00001283,0.00000841,-0.00000651,-0.00000098,
 0.00000812,-0.00000245,0.00000008,0.00000584,0.00000017,0.00000268,0.0
 0000419,0.00000061,0.00000225,0.00000206,0.00000204,0.00000484,0.00001
 490,-0.00000450,0.00002170,-0.00001619,-0.00000363,0.00002867,0.000011
 55,-0.00001676,-0.00000508,-0.00000375,0.00001466,-0.00000820,-0.00000
 338,-0.00000230,-0.00001354,-0.00000891,0.00000024,0.00000111,0.000008
 46,0.00000467,-0.00000382,-0.00000257,0.00000002,0.00000137,0.00000216
 ,-0.00000479,-0.00000125,-0.00000048,-0.00000100,-0.00000583,0.0000112
 1,0.00000760,0.00000378,-0.00000288,-0.00000026,-0.00000797,-0.0000036
 1,0.00001463,0.00000081,0.00002364,0.00000002,-0.00002605,-0.00001012,
 -0.00002031,0.00000256,-0.00000280,-0.00000035,-0.00000482,-0.00000327
 ,0.00000945,0.00000441,-0.00000367,0.00000032,-0.00000085,-0.00000629,
 -0.00000612,-0.00000940,0.00001445,-0.00000023,0.00000487,-0.00000295,
 0.00000133,0.00000132,-0.00000588,0.00000196,0.00000058,-0.00000467,0.
 00000204,0.00000228,-0.00000618,0.00000114,0.00001079,-0.00002333,0.00
 000328,0.00000487,-0.00000646,0.00000328\\\@
 The archive entry for this job was punched.


 WHERE THERE IS MUCH DESIRE TO LEARN, THERE OF NECESSITY WILL BE
 MUCH ARGUING, MUCH WRITING, MANY OPINIONS; FOR OPINION IN GOOD MEN
 IS BUT KNOWLEDGE IN THE MAKING. -- JOHN MILTON.
 Job cpu time:       0 days 13 hours 28 minutes 42.6 seconds.
 Elapsed time:       0 days  0 hours 53 minutes 57.8 seconds.
 File lengths (MBytes):  RWF=    887 Int=      0 D2E=      0 Chk=     22 Scr=      1
 Normal termination of Gaussian 16 at Mon May 23 22:52:24 2022.
