 Entering Gaussian System, Link 0=g16
 Input=/home/user/WorkIMPORTANT/Akshay/OXICAMS/M06/Isoxicam/Drug/Positive/isoxicamM06.gjf
 Output=/home/user/WorkIMPORTANT/Akshay/OXICAMS/M06/Isoxicam/Drug/Positive/isoxicamM06.log
 Initial command:
 /home/user/gaussian/g16/l1.exe "/home/user/gaussian/scratch/Gau-2439807.inp" -scrdir="/home/user/gaussian/scratch/"
 Entering Link 1 = /home/user/gaussian/g16/l1.exe PID=   2439810.
  
 Copyright (c) 1988-2019, Gaussian, Inc.  All Rights Reserved.
  
 This is part of the Gaussian(R) 16 program.  It is based on
 the Gaussian(R) 09 system (copyright 2009, Gaussian, Inc.),
 the Gaussian(R) 03 system (copyright 2003, Gaussian, Inc.),
 the Gaussian(R) 98 system (copyright 1998, Gaussian, Inc.),
 the Gaussian(R) 94 system (copyright 1995, Gaussian, Inc.),
 the Gaussian 92(TM) system (copyright 1992, Gaussian, Inc.),
 the Gaussian 90(TM) system (copyright 1990, Gaussian, Inc.),
 the Gaussian 88(TM) system (copyright 1988, Gaussian, Inc.),
 the Gaussian 86(TM) system (copyright 1986, Carnegie Mellon
 University), and the Gaussian 82(TM) system (copyright 1983,
 Carnegie Mellon University). Gaussian is a federally registered
 trademark of Gaussian, Inc.
  
 This software contains proprietary and confidential information,
 including trade secrets, belonging to Gaussian, Inc.
  
 This software is provided under written license and may be
 used, copied, transmitted, or stored only in accord with that
 written license.
  
 The following legend is applicable only to US Government
 contracts under FAR:
  
                    RESTRICTED RIGHTS LEGEND
  
 Use, reproduction and disclosure by the US Government is
 subject to restrictions as set forth in subparagraphs (a)
 and (c) of the Commercial Computer Software - Restricted
 Rights clause in FAR 52.227-19.
  
 Gaussian, Inc.
 340 Quinnipiac St., Bldg. 40, Wallingford CT 06492
  
  
 ---------------------------------------------------------------
 Warning -- This program may not be used in any manner that
 competes with the business of Gaussian, Inc. or will provide
 assistance to any competitor of Gaussian, Inc.  The licensee
 of this program is prohibited from giving any competitor of
 Gaussian, Inc. access to this program.  By using this program,
 the user acknowledges that Gaussian, Inc. is engaged in the
 business of creating and licensing software in the field of
 computational chemistry and represents and warrants to the
 licensee that it is not a competitor of Gaussian, Inc. and that
 it will not use this program in any manner prohibited above.
 ---------------------------------------------------------------
  

 Cite this work as:
 Gaussian 16, Revision C.01,
 M. J. Frisch, G. W. Trucks, H. B. Schlegel, G. E. Scuseria, 
 M. A. Robb, J. R. Cheeseman, G. Scalmani, V. Barone, 
 G. A. Petersson, H. Nakatsuji, X. Li, M. Caricato, A. V. Marenich, 
 J. Bloino, B. G. Janesko, R. Gomperts, B. Mennucci, H. P. Hratchian, 
 J. V. Ortiz, A. F. Izmaylov, J. L. Sonnenberg, D. Williams-Young, 
 F. Ding, F. Lipparini, F. Egidi, J. Goings, B. Peng, A. Petrone, 
 T. Henderson, D. Ranasinghe, V. G. Zakrzewski, J. Gao, N. Rega, 
 G. Zheng, W. Liang, M. Hada, M. Ehara, K. Toyota, R. Fukuda, 
 J. Hasegawa, M. Ishida, T. Nakajima, Y. Honda, O. Kitao, H. Nakai, 
 T. Vreven, K. Throssell, J. A. Montgomery, Jr., J. E. Peralta, 
 F. Ogliaro, M. J. Bearpark, J. J. Heyd, E. N. Brothers, K. N. Kudin, 
 V. N. Staroverov, T. A. Keith, R. Kobayashi, J. Normand, 
 K. Raghavachari, A. P. Rendell, J. C. Burant, S. S. Iyengar, 
 J. Tomasi, M. Cossi, J. M. Millam, M. Klene, C. Adamo, R. Cammi, 
 J. W. Ochterski, R. L. Martin, K. Morokuma, O. Farkas, 
 J. B. Foresman, and D. J. Fox, Gaussian, Inc., Wallingford CT, 2019.
 
 ******************************************
 Gaussian 16:  ES64L-G16RevC.01  3-Jul-2019
                25-May-2022 
 ******************************************
 %nprocshared=6
 Will use up to    6 processors via shared memory.
 -------------------------
 # pop=nbo m06/6-31+g(d,p)
 -------------------------
 1/38=1,172=1/1;
 2/12=2,17=6,18=5,40=1/2;
 3/5=1,6=6,7=111,11=2,25=1,30=1,74=-54/1,2,3;
 4//1;
 5/5=2,38=5/2;
 6/7=2,8=2,9=2,10=2,28=1,40=1/1,7;
 99/5=1,9=1/99;
 --------
 Isoxicam
 --------
 Symbolic Z-matrix:
 Charge =  1 Multiplicity = 2
 C                    -3.09801  -0.2755   -0.14686 
 C                    -4.44579  -0.59603  -0.09796 
 C                    -5.3742    0.42726   0.07468 
 C                    -4.94476   1.74787   0.19028 
 C                    -3.59025   2.05859   0.15176 
 C                    -2.64274   1.04434  -0.0068 
 H                    -4.75485  -1.63404  -0.19369 
 H                    -6.43455   0.19261   0.11528 
 H                    -5.67349   2.54416   0.31746 
 H                    -3.24944   3.08538   0.24898 
 C                    -1.20823   1.34956  -0.01668 
 C                    -0.25703   0.38307   0.18444 
 S                    -1.88616  -1.53954  -0.46446 
 O                    -1.46278  -1.44817  -1.84885 
 O                    -2.35009  -2.79288   0.1069 
 N                    -0.6161   -0.96912   0.48965 
 C                    -0.72589  -1.27093   1.92793 
 H                     0.2276   -1.00801   2.39609 
 H                    -1.5283   -0.69087   2.40732 
 H                    -0.90901  -2.33838   2.0628 
 O                    -0.91095   2.61952  -0.25469 
 H                     0.07946   2.69914  -0.21389 
 C                     1.16209   0.71321   0.0756 
 O                     1.55313   1.88488  -0.04772 
 N                     2.01507  -0.34907   0.12246 
 H                     1.60057  -1.27712   0.12621 
 C                     3.39782  -0.28399   0.04988 
 N                     4.06289  -1.41808   0.10304 
 C                     5.49005   0.28663  -0.08723 
 C                     4.24961   0.84527  -0.06991 
 C                     6.8542    0.8464   -0.19439 
 H                     7.45606   0.57681   0.68026 
 H                     7.36595   0.4578   -1.08152 
 H                     6.80912   1.93566  -0.26604 
 O                     5.39405  -1.05029   0.0137 
 H                     3.96834   1.88445  -0.13709 
 
                          Input orientation:                          
 ---------------------------------------------------------------------
 Center     Atomic      Atomic             Coordinates (Angstroms)
 Number     Number       Type             X           Y           Z
 ---------------------------------------------------------------------
      1          6           0       -3.098007   -0.275499   -0.146862
      2          6           0       -4.445792   -0.596026   -0.097961
      3          6           0       -5.374198    0.427261    0.074677
      4          6           0       -4.944761    1.747869    0.190277
      5          6           0       -3.590250    2.058590    0.151763
      6          6           0       -2.642744    1.044344   -0.006799
      7          1           0       -4.754851   -1.634040   -0.193689
      8          1           0       -6.434546    0.192607    0.115283
      9          1           0       -5.673486    2.544159    0.317463
     10          1           0       -3.249437    3.085383    0.248983
     11          6           0       -1.208229    1.349557   -0.016675
     12          6           0       -0.257033    0.383070    0.184438
     13         16           0       -1.886158   -1.539543   -0.464455
     14          8           0       -1.462781   -1.448168   -1.848846
     15          8           0       -2.350088   -2.792883    0.106895
     16          7           0       -0.616100   -0.969118    0.489651
     17          6           0       -0.725886   -1.270929    1.927933
     18          1           0        0.227601   -1.008014    2.396092
     19          1           0       -1.528297   -0.690869    2.407316
     20          1           0       -0.909014   -2.338376    2.062800
     21          8           0       -0.910954    2.619516   -0.254694
     22          1           0        0.079459    2.699140   -0.213890
     23          6           0        1.162088    0.713207    0.075600
     24          8           0        1.553129    1.884878   -0.047724
     25          7           0        2.015069   -0.349066    0.122458
     26          1           0        1.600571   -1.277117    0.126214
     27          6           0        3.397820   -0.283988    0.049877
     28          7           0        4.062891   -1.418077    0.103036
     29          6           0        5.490051    0.286626   -0.087228
     30          6           0        4.249606    0.845270   -0.069912
     31          6           0        6.854195    0.846400   -0.194389
     32          1           0        7.456061    0.576813    0.680255
     33          1           0        7.365954    0.457797   -1.081518
     34          1           0        6.809122    1.935664   -0.266041
     35          8           0        5.394054   -1.050293    0.013703
     36          1           0        3.968335    1.884452   -0.137094
 ---------------------------------------------------------------------
                    Distance matrix (angstroms):
                    1          2          3          4          5
     1  C    0.000000
     2  C    1.386237   0.000000
     3  C    2.392488   1.392429   0.000000
     4  C    2.760105   2.413689   1.393479   0.000000
     5  C    2.404049   2.800232   2.418604   1.390227   0.000000
     6  C    1.403163   2.439284   2.801477   2.415175   1.396998
     7  H    2.143119   1.087269   2.169003   3.408930   3.887306
     8  H    3.379399   2.150013   1.086761   2.154976   3.401947
     9  H    3.846968   3.397142   2.151691   1.086874   2.145485
    10  H    3.387499   3.886439   3.407434   2.160211   1.086236
    11  C    2.495800   3.778057   4.267818   3.763396   2.491008
    12  C    2.935065   4.310926   5.118533   4.882367   3.730787
    13  S    1.779677   2.752502   4.040471   4.537709   4.028674
    14  O    2.635501   3.562317   4.745140   5.147510   4.563542
    15  O    2.638370   3.043045   4.417647   5.230460   5.007675
    16  N    2.654453   3.892432   4.976100   5.119468   4.257552
    17  C    3.304938   4.289224   5.284431   5.470968   4.737622
    18  H    4.250043   5.313251   6.231303   6.262095   5.386748
    19  H    3.026607   3.846711   4.634908   4.747097   4.110802
    20  H    3.732259   4.495939   5.615982   6.040778   5.493123
    21  O    3.629868   4.781146   4.983474   4.150827   2.767395
    22  H    4.353075   5.599058   5.914988   5.129430   3.743096
    23  C    4.378977   5.761296   6.542538   6.194940   4.939694
    24  O    5.129339   6.491877   7.080077   6.503691   5.150177
    25  N    5.120692   6.469335   7.430090   7.269179   6.100596
    26  H    4.811907   6.088731   7.180178   7.210826   6.170269
    27  C    6.498811   7.851208   8.800840   8.587596   7.370968
    28  N    7.255783   8.550664   9.615858   9.548226   8.405959
    29  C    8.606642   9.974977  10.866365  10.540282   9.254666
    30  C    7.432998   8.814083   9.633963   9.242227   7.936285
    31  C   10.015350  11.392085  12.238532  11.839594  10.520250
    32  H   10.620683  11.984794  12.845413  12.465626  11.157775
    33  H   10.531182  11.899381  12.792544  12.443289  11.141002
    34  H   10.151584  11.537365  12.281069  11.764236  10.408487
    35  O    8.528844   9.850959  10.869321  10.712235   9.507993
    36  H    7.389091   8.772220   9.457863   8.920152   7.566107
                    6          7          8          9         10
     6  C    0.000000
     7  H    3.416089   0.000000
     8  H    3.888203   2.500696   0.000000
     9  H    3.397056   4.308424   2.479896   0.000000
    10  H    2.144607   4.973448   4.304759   2.484678   0.000000
    11  C    1.466658   4.638072   5.354469   4.634355   2.692619
    12  C    2.483037   4.943893   6.180835   5.833178   4.032511
    13  S    2.730997   2.882992   4.901456   5.624222   4.874163
    14  O    3.316333   3.689420   5.591815   6.193675   5.305291
    15  O    3.850050   2.686290   5.059251   6.290734   5.948364
    16  N    2.899617   4.247156   5.945088   6.160350   4.840595
    17  C    3.574636   4.567898   6.165747   6.451919   5.307037
    18  H    4.269068   5.650106   7.143373   7.194544   5.784096
    19  H    3.175044   4.250347   5.486823   5.658223   4.677692
    20  H    4.328031   4.514232   6.382022   7.041700   6.179375
    21  O    2.354085   5.733411   6.044571   4.797369   2.437053
    22  H    3.192433   6.492104   6.987369   5.779510   3.383044
    23  C    3.820103   6.371205   7.614555   7.080675   5.011869
    24  O    4.279430   7.224590   8.166597   7.265809   4.959222
    25  N    4.863489   6.898038   8.466963   8.217217   6.287008
    26  H    4.838656   6.373470   8.168434   8.218919   6.524497
    27  C    6.185151   8.267285   9.844127   9.505715   7.455088
    28  N    7.144307   8.825376  10.620294  10.513911   8.589097
    29  C    8.168412  10.423930  11.926687  11.396701   9.182850
    30  C    6.895513   9.340372  10.705670  10.074921   7.832972
    31  C    9.500854  11.871080  13.308418  12.652556  10.358234
    32  H   10.132941  12.440178  13.907400  13.281080  11.003936
    33  H   10.083308  12.331988  13.854835  13.279196  11.016395
    34  H    9.497338  12.102623  13.363323  12.511045  10.137145
    35  O    8.305302  10.167794  11.894154  11.640567   9.584837
    36  H    6.665518   9.406219  10.542579   9.675048   7.327177
                   11         12         13         14         15
    11  C    0.000000
    12  C    1.370882   0.000000
    13  S    3.001165   2.602220   0.000000
    14  O    3.353940   2.990235   1.450564   0.000000
    15  O    4.298712   3.804414   1.453456   2.533870   0.000000
    16  N    2.446066   1.431955   1.687824   2.532770   2.545454
    17  C    3.298652   2.448532   2.672434   3.852076   2.875857
    18  H    3.666223   2.657329   3.596280   4.590275   3.882095
    19  H    3.184574   2.776805   3.015855   4.323507   3.222691
    20  H    4.244360   3.370399   2.824883   4.049704   2.471606
    21  O    1.325829   2.371105   4.277008   4.403622   5.612122
    22  H    1.875742   2.374041   4.678981   4.717176   6.013977
    23  C    2.455984   1.461075   3.828622   3.907041   4.962764
    24  O    2.812940   2.363475   4.871244   4.842412   6.094297
    25  N    3.646139   2.387951   4.120834   4.146023   5.002707
    26  H    3.848271   2.492048   3.546130   3.648869   4.231504
    27  C    4.887595   3.717664   5.455399   5.346579   6.271862
    28  N    5.954732   4.681079   5.977289   5.860358   6.558689
    29  C    6.782459   5.754310   7.608262   7.379342   8.425487
    30  C    5.481341   4.537413   6.594740   6.407482   7.538128
    31  C    8.080064   7.136368   9.064184   8.784894   9.902221
    32  H    8.726555   7.731442   9.647092   9.489080  10.384804
    33  H    8.685951   7.727753   9.485342   9.064660  10.314103
    34  H    8.042613   7.248726   9.366127   9.076341  10.314522
    35  O    7.024980   5.832535   7.312283   7.116430   7.938327
    36  H    5.205519   4.495694   6.790140   6.597990   7.865079
                   16         17         18         19         20
    16  N    0.000000
    17  C    1.473702   0.000000
    18  H    2.085153   1.094274   0.000000
    19  H    2.141720   1.100064   1.784344   0.000000
    20  H    2.106054   1.091406   1.781247   1.793455   0.000000
    21  O    3.676858   4.464714   4.634862   4.292558   5.472794
    22  H    3.799327   4.582296   4.536182   4.576872   5.615778
    23  C    2.482662   3.306415   3.036536   3.827075   4.189342
    24  O    3.624861   4.365346   4.012242   4.707110   5.324691
    25  N    2.728066   3.409165   2.966255   4.229994   4.033924
    26  H    2.267285   2.942555   2.666423   3.916239   3.342851
    27  C    4.095651   4.637467   4.009891   5.476285   5.178918
    28  N    4.716354   5.126820   4.487283   6.090970   5.422865
    29  C    6.260572   6.717494   5.961237   7.512353   7.243017
    30  C    5.223046   5.764131   5.068763   6.471518   6.426151
    31  C    7.718117   8.151378   7.352632   8.910569   8.689368
    32  H    8.221071   8.480278   7.596473   9.236257   8.965726
    33  H    8.259409   8.804724   8.074556   9.622842   9.283341
    34  H    8.008917   8.477742   7.685611   9.141010   9.124721
    35  O    6.029516   6.416122   5.689446   7.333315   6.751787
    36  H    5.436241   6.021335   5.364372   6.581737   6.816182
                   21         22         23         24         25
    21  O    0.000000
    22  H    0.994446   0.000000
    23  C    2.835597   2.280311   0.000000
    24  O    2.579580   1.691844   1.241344   0.000000
    25  N    4.185252   3.626469   1.363157   2.287544   0.000000
    26  H    4.651516   4.270840   2.038681   3.167131   1.016416
    27  C    5.204674   4.469916   2.448174   2.848928   1.386183
    28  N    6.416328   5.737565   3.599692   4.151042   2.310138
    29  C    6.814931   5.925434   4.351982   4.249156   3.538866
    30  C    5.460171   4.565927   3.093765   2.890029   2.540984
    31  C    7.965244   7.023537   5.700063   5.403818   4.994664
    32  H    8.663354   7.727744   6.324421   6.089794   5.547322
    33  H    8.594409   7.672640   6.316020   6.074062   5.543695
    34  H    7.750313   6.773033   5.787928   5.260770   5.324835
    35  O    7.300182   6.508069   4.585117   4.834429   3.452693
    36  H    4.935748   3.974037   3.048291   2.416859   2.978459
                   26         27         28         29         30
    26  H    0.000000
    27  C    2.054808   0.000000
    28  N    2.466460   1.315790   0.000000
    29  C    4.197488   2.172977   2.231367   0.000000
    30  C    3.400056   1.419547   2.277611   1.360546   0.000000
    31  C    5.675621   3.644718   3.606618   1.478418   2.607562
    32  H    6.166910   4.196150   3.978237   2.130360   3.303963
    33  H    6.140699   4.192420   3.978982   2.130006   3.299259
    34  H    6.132278   4.082112   4.350354   2.119257   2.789005
    35  O    3.801923   2.138570   1.383922   1.344156   2.215832
    36  H    3.958681   2.250017   3.312597   2.207069   1.078669
                   31         32         33         34         35
    31  C    0.000000
    32  H    1.095409   0.000000
    33  H    1.095403   1.768086   0.000000
    34  H    1.092548   1.777775   1.777401   0.000000
    35  O    2.402657   2.709915   2.713344   3.316114   0.000000
    36  H    3.067413   3.813425   3.804089   2.844173   3.266212
                   36
    36  H    0.000000
 Stoichiometry    C14H13N3O5S(1+,2)
 Framework group  C1[X(C14H13N3O5S)]
 Deg. of freedom   102
 Full point group                 C1      NOp   1
 Largest Abelian subgroup         C1      NOp   1
 Largest concise Abelian subgroup C1      NOp   1
                         Standard orientation:                         
 ---------------------------------------------------------------------
 Center     Atomic      Atomic             Coordinates (Angstroms)
 Number     Number       Type             X           Y           Z
 ---------------------------------------------------------------------
      1          6           0       -3.098007   -0.275499   -0.146862
      2          6           0       -4.445792   -0.596026   -0.097961
      3          6           0       -5.374198    0.427261    0.074677
      4          6           0       -4.944761    1.747869    0.190277
      5          6           0       -3.590250    2.058590    0.151763
      6          6           0       -2.642744    1.044344   -0.006799
      7          1           0       -4.754851   -1.634040   -0.193689
      8          1           0       -6.434546    0.192607    0.115283
      9          1           0       -5.673486    2.544159    0.317463
     10          1           0       -3.249437    3.085383    0.248983
     11          6           0       -1.208229    1.349557   -0.016675
     12          6           0       -0.257033    0.383070    0.184438
     13         16           0       -1.886158   -1.539543   -0.464455
     14          8           0       -1.462781   -1.448168   -1.848846
     15          8           0       -2.350088   -2.792883    0.106895
     16          7           0       -0.616100   -0.969118    0.489651
     17          6           0       -0.725886   -1.270929    1.927933
     18          1           0        0.227601   -1.008014    2.396092
     19          1           0       -1.528297   -0.690869    2.407316
     20          1           0       -0.909014   -2.338376    2.062800
     21          8           0       -0.910954    2.619516   -0.254694
     22          1           0        0.079459    2.699140   -0.213890
     23          6           0        1.162088    0.713207    0.075600
     24          8           0        1.553129    1.884878   -0.047724
     25          7           0        2.015069   -0.349066    0.122458
     26          1           0        1.600571   -1.277117    0.126214
     27          6           0        3.397820   -0.283988    0.049877
     28          7           0        4.062891   -1.418077    0.103036
     29          6           0        5.490051    0.286626   -0.087228
     30          6           0        4.249606    0.845270   -0.069912
     31          6           0        6.854195    0.846400   -0.194389
     32          1           0        7.456061    0.576813    0.680255
     33          1           0        7.365954    0.457797   -1.081518
     34          1           0        6.809122    1.935664   -0.266041
     35          8           0        5.394054   -1.050293    0.013703
     36          1           0        3.968335    1.884452   -0.137094
 ---------------------------------------------------------------------
 Rotational constants (GHZ):           0.6229296           0.1258089           0.1106776
 Standard basis: 6-31+G(d,p) (6D, 7F)
 There are   506 symmetry adapted cartesian basis functions of A   symmetry.
 There are   506 symmetry adapted basis functions of A   symmetry.
   506 basis functions,   851 primitive gaussians,   506 cartesian basis functions
    87 alpha electrons       86 beta electrons
       nuclear repulsion energy      2131.5767144751 Hartrees.
 NAtoms=   36 NActive=   36 NUniq=   36 SFac= 1.00D+00 NAtFMM=   60 NAOKFM=F Big=F
 Integral buffers will be    131072 words long.
 Raffenetti 2 integral format.
 Two-electron integral symmetry is turned on.
 One-electron integrals computed using PRISM.
 NBasis=   506 RedAO= T EigKep=  1.53D-06  NBF=   506
 NBsUse=   503 1.00D-06 EigRej=  7.08D-07 NBFU=   503
 ExpMin= 4.05D-02 ExpMax= 2.19D+04 ExpMxC= 3.30D+03 IAcc=3 IRadAn=         5 AccDes= 0.00D+00
 Harris functional with IExCor= 1009 and IRadAn=       5 diagonalized for initial guess.
 HarFok:  IExCor= 1009 AccDes= 0.00D+00 IRadAn=         5 IDoV= 1 UseB2=F ITyADJ=14
 ICtDFT=  3500011 ScaDFX=  1.000000  1.000000  1.000000  1.000000
 FoFCou: FMM=F IPFlag=           0 FMFlag=      100000 FMFlg1=           0
         NFxFlg=           0 DoJE=T BraDBF=F KetDBF=T FulRan=T
         wScrn=  0.000000 ICntrl=       500 IOpCl=  0 I1Cent=   200000004 NGrid=           0
         NMat0=    1 NMatS0=      1 NMatT0=    0 NMatD0=    1 NMtDS0=    0 NMtDT0=    0
 Petite list used in FoFCou.
 Initial guess <Sx>= 0.0000 <Sy>= 0.0000 <Sz>= 0.5000 <S**2>= 0.7500 S= 0.5000
 Requested convergence on RMS density matrix=1.00D-08 within 128 cycles.
 Requested convergence on MAX density matrix=1.00D-06.
 Requested convergence on             energy=1.00D-06.
 No special actions if energy rises.
 Restarting incremental Fock formation.
 SCF Done:  E(UM06) =  -1478.86045766     A.U. after   27 cycles
            NFock= 27  Conv=0.86D-08     -V/T= 2.0083
 <Sx>= 0.0000 <Sy>= 0.0000 <Sz>= 0.5000 <S**2>= 0.7668 S= 0.5084
 <L.S>=  0.00000000000    
 Annihilation of the first spin contaminant:
 S**2 before annihilation     0.7668,   after     0.7502

 **********************************************************************

            Population analysis using the SCF Density.

 **********************************************************************

 Orbital symmetries:
 Alpha Orbitals:
       Occupied  (A) (A) (A) (A) (A) (A) (A) (A) (A) (A) (A) (A)
                 (A) (A) (A) (A) (A) (A) (A) (A) (A) (A) (A) (A)
                 (A) (A) (A) (A) (A) (A) (A) (A) (A) (A) (A) (A)
                 (A) (A) (A) (A) (A) (A) (A) (A) (A) (A) (A) (A)
                 (A) (A) (A) (A) (A) (A) (A) (A) (A) (A) (A) (A)
                 (A) (A) (A) (A) (A) (A) (A) (A) (A) (A) (A) (A)
                 (A) (A) (A) (A) (A) (A) (A) (A) (A) (A) (A) (A)
                 (A) (A) (A)
       Virtual   (A) (A) (A) (A) (A) (A) (A) (A) (A) (A) (A) (A)
                 (A) (A) (A) (A) (A) (A) (A) (A) (A) (A) (A) (A)
                 (A) (A) (A) (A) (A) (A) (A) (A) (A) (A) (A) (A)
                 (A) (A) (A) (A) (A) (A) (A) (A) (A) (A) (A) (A)
                 (A) (A) (A) (A) (A) (A) (A) (A) (A) (A) (A) (A)
                 (A) (A) (A) (A) (A) (A) (A) (A) (A) (A) (A) (A)
                 (A) (A) (A) (A) (A) (A) (A) (A) (A) (A) (A) (A)
                 (A) (A) (A) (A) (A) (A) (A) (A) (A) (A) (A) (A)
                 (A) (A) (A) (A) (A) (A) (A) (A) (A) (A) (A) (A)
                 (A) (A) (A) (A) (A) (A) (A) (A) (A) (A) (A) (A)
                 (A) (A) (A) (A) (A) (A) (A) (A) (A) (A) (A) (A)
                 (A) (A) (A) (A) (A) (A) (A) (A) (A) (A) (A) (A)
                 (A) (A) (A) (A) (A) (A) (A) (A) (A) (A) (A) (A)
                 (A) (A) (A) (A) (A) (A) (A) (A) (A) (A) (A) (A)
                 (A) (A) (A) (A) (A) (A) (A) (A) (A) (A) (A) (A)
                 (A) (A) (A) (A) (A) (A) (A) (A) (A) (A) (A) (A)
                 (A) (A) (A) (A) (A) (A) (A) (A) (A) (A) (A) (A)
                 (A) (A) (A) (A) (A) (A) (A) (A) (A) (A) (A) (A)
                 (A) (A) (A) (A) (A) (A) (A) (A) (A) (A) (A) (A)
                 (A) (A) (A) (A) (A) (A) (A) (A) (A) (A) (A) (A)
                 (A) (A) (A) (A) (A) (A) (A) (A) (A) (A) (A) (A)
                 (A) (A) (A) (A) (A) (A) (A) (A) (A) (A) (A) (A)
                 (A) (A) (A) (A) (A) (A) (A) (A) (A) (A) (A) (A)
                 (A) (A) (A) (A) (A) (A) (A) (A) (A) (A) (A) (A)
                 (A) (A) (A) (A) (A) (A) (A) (A) (A) (A) (A) (A)
                 (A) (A) (A) (A) (A) (A) (A) (A) (A) (A) (A) (A)
                 (A) (A) (A) (A) (A) (A) (A) (A) (A) (A) (A) (A)
                 (A) (A) (A) (A) (A) (A) (A) (A) (A) (A) (A) (A)
                 (A) (A) (A) (A) (A) (A) (A) (A) (A) (A) (A) (A)
                 (A) (A) (A) (A) (A) (A) (A) (A) (A) (A) (A) (A)
                 (A) (A) (A) (A) (A) (A) (A) (A) (A) (A) (A) (A)
                 (A) (A) (A) (A) (A) (A) (A) (A) (A) (A) (A) (A)
                 (A) (A) (A) (A) (A) (A) (A) (A) (A) (A) (A) (A)
                 (A) (A) (A) (A) (A) (A) (A) (A) (A) (A) (A) (A)
                 (A) (A) (A) (A) (A) (A) (A) (A)
 Beta  Orbitals:
       Occupied  (A) (A) (A) (A) (A) (A) (A) (A) (A) (A) (A) (A)
                 (A) (A) (A) (A) (A) (A) (A) (A) (A) (A) (A) (A)
                 (A) (A) (A) (A) (A) (A) (A) (A) (A) (A) (A) (A)
                 (A) (A) (A) (A) (A) (A) (A) (A) (A) (A) (A) (A)
                 (A) (A) (A) (A) (A) (A) (A) (A) (A) (A) (A) (A)
                 (A) (A) (A) (A) (A) (A) (A) (A) (A) (A) (A) (A)
                 (A) (A) (A) (A) (A) (A) (A) (A) (A) (A) (A) (A)
                 (A) (A)
       Virtual   (A) (A) (A) (A) (A) (A) (A) (A) (A) (A) (A) (A)
                 (A) (A) (A) (A) (A) (A) (A) (A) (A) (A) (A) (A)
                 (A) (A) (A) (A) (A) (A) (A) (A) (A) (A) (A) (A)
                 (A) (A) (A) (A) (A) (A) (A) (A) (A) (A) (A) (A)
                 (A) (A) (A) (A) (A) (A) (A) (A) (A) (A) (A) (A)
                 (A) (A) (A) (A) (A) (A) (A) (A) (A) (A) (A) (A)
                 (A) (A) (A) (A) (A) (A) (A) (A) (A) (A) (A) (A)
                 (A) (A) (A) (A) (A) (A) (A) (A) (A) (A) (A) (A)
                 (A) (A) (A) (A) (A) (A) (A) (A) (A) (A) (A) (A)
                 (A) (A) (A) (A) (A) (A) (A) (A) (A) (A) (A) (A)
                 (A) (A) (A) (A) (A) (A) (A) (A) (A) (A) (A) (A)
                 (A) (A) (A) (A) (A) (A) (A) (A) (A) (A) (A) (A)
                 (A) (A) (A) (A) (A) (A) (A) (A) (A) (A) (A) (A)
                 (A) (A) (A) (A) (A) (A) (A) (A) (A) (A) (A) (A)
                 (A) (A) (A) (A) (A) (A) (A) (A) (A) (A) (A) (A)
                 (A) (A) (A) (A) (A) (A) (A) (A) (A) (A) (A) (A)
                 (A) (A) (A) (A) (A) (A) (A) (A) (A) (A) (A) (A)
                 (A) (A) (A) (A) (A) (A) (A) (A) (A) (A) (A) (A)
                 (A) (A) (A) (A) (A) (A) (A) (A) (A) (A) (A) (A)
                 (A) (A) (A) (A) (A) (A) (A) (A) (A) (A) (A) (A)
                 (A) (A) (A) (A) (A) (A) (A) (A) (A) (A) (A) (A)
                 (A) (A) (A) (A) (A) (A) (A) (A) (A) (A) (A) (A)
                 (A) (A) (A) (A) (A) (A) (A) (A) (A) (A) (A) (A)
                 (A) (A) (A) (A) (A) (A) (A) (A) (A) (A) (A) (A)
                 (A) (A) (A) (A) (A) (A) (A) (A) (A) (A) (A) (A)
                 (A) (A) (A) (A) (A) (A) (A) (A) (A) (A) (A) (A)
                 (A) (A) (A) (A) (A) (A) (A) (A) (A) (A) (A) (A)
                 (A) (A) (A) (A) (A) (A) (A) (A) (A) (A) (A) (A)
                 (A) (A) (A) (A) (A) (A) (A) (A) (A) (A) (A) (A)
                 (A) (A) (A) (A) (A) (A) (A) (A) (A) (A) (A) (A)
                 (A) (A) (A) (A) (A) (A) (A) (A) (A) (A) (A) (A)
                 (A) (A) (A) (A) (A) (A) (A) (A) (A) (A) (A) (A)
                 (A) (A) (A) (A) (A) (A) (A) (A) (A) (A) (A) (A)
                 (A) (A) (A) (A) (A) (A) (A) (A) (A) (A) (A) (A)
                 (A) (A) (A) (A) (A) (A) (A) (A) (A)
 The electronic state is 2-A.
 Alpha  occ. eigenvalues --  -89.44083 -19.47859 -19.46136 -19.39154 -19.38384
 Alpha  occ. eigenvalues --  -19.38227 -14.64889 -14.62972 -14.62595 -10.55524
 Alpha  occ. eigenvalues --  -10.54957 -10.51097 -10.49895 -10.48048 -10.45990
 Alpha  occ. eigenvalues --  -10.45862 -10.44367 -10.43803 -10.43653 -10.43441
 Alpha  occ. eigenvalues --  -10.42627 -10.40201 -10.38626  -8.40729  -6.32583
 Alpha  occ. eigenvalues --   -6.32413  -6.32337  -1.32913  -1.29643  -1.29180
 Alpha  occ. eigenvalues --   -1.24387  -1.18382  -1.15806  -1.14025  -1.05451
 Alpha  occ. eigenvalues --   -1.03919  -0.98837  -0.96781  -0.95166  -0.94102
 Alpha  occ. eigenvalues --   -0.88110  -0.87107  -0.86615  -0.82751  -0.82075
 Alpha  occ. eigenvalues --   -0.78652  -0.77753  -0.75907  -0.75560  -0.72820
 Alpha  occ. eigenvalues --   -0.72037  -0.67595  -0.67189  -0.66928  -0.65837
 Alpha  occ. eigenvalues --   -0.65537  -0.63931  -0.63838  -0.63621  -0.62792
 Alpha  occ. eigenvalues --   -0.61588  -0.61287  -0.60928  -0.60422  -0.59225
 Alpha  occ. eigenvalues --   -0.58233  -0.56644  -0.56210  -0.55367  -0.54995
 Alpha  occ. eigenvalues --   -0.54709  -0.54098  -0.53059  -0.52769  -0.52271
 Alpha  occ. eigenvalues --   -0.50718  -0.49511  -0.48680  -0.47961  -0.47465
 Alpha  occ. eigenvalues --   -0.46747  -0.45802  -0.44380  -0.43694  -0.42928
 Alpha  occ. eigenvalues --   -0.42417  -0.41628
 Alpha virt. eigenvalues --   -0.23815  -0.17752  -0.16495  -0.13911  -0.13882
 Alpha virt. eigenvalues --   -0.12322  -0.11875  -0.11686  -0.10875  -0.10500
 Alpha virt. eigenvalues --   -0.10143  -0.09487  -0.09276  -0.09191  -0.08970
 Alpha virt. eigenvalues --   -0.08224  -0.08100  -0.07496  -0.07200  -0.06982
 Alpha virt. eigenvalues --   -0.06577  -0.06502  -0.05893  -0.05536  -0.05232
 Alpha virt. eigenvalues --   -0.04920  -0.04621  -0.04499  -0.04401  -0.04094
 Alpha virt. eigenvalues --   -0.03918  -0.03603  -0.03233  -0.02652  -0.02555
 Alpha virt. eigenvalues --   -0.02125  -0.01699  -0.01335  -0.01037  -0.00653
 Alpha virt. eigenvalues --   -0.00414   0.00023   0.00460   0.01050   0.01373
 Alpha virt. eigenvalues --    0.01604   0.01831   0.02116   0.02583   0.02854
 Alpha virt. eigenvalues --    0.03551   0.03620   0.04024   0.04331   0.04464
 Alpha virt. eigenvalues --    0.04832   0.05314   0.05516   0.05825   0.06205
 Alpha virt. eigenvalues --    0.06983   0.07282   0.07643   0.07893   0.08425
 Alpha virt. eigenvalues --    0.08454   0.08563   0.08966   0.09477   0.09667
 Alpha virt. eigenvalues --    0.10026   0.10180   0.10421   0.10595   0.11090
 Alpha virt. eigenvalues --    0.11486   0.11732   0.12134   0.12288   0.12821
 Alpha virt. eigenvalues --    0.12907   0.13310   0.13532   0.13735   0.14081
 Alpha virt. eigenvalues --    0.14414   0.14972   0.15159   0.15548   0.15595
 Alpha virt. eigenvalues --    0.16111   0.16632   0.16914   0.17551   0.17682
 Alpha virt. eigenvalues --    0.17920   0.18294   0.18566   0.18773   0.19039
 Alpha virt. eigenvalues --    0.19739   0.20133   0.20492   0.20862   0.20940
 Alpha virt. eigenvalues --    0.21330   0.21684   0.22061   0.22370   0.22804
 Alpha virt. eigenvalues --    0.23553   0.23970   0.24434   0.25320   0.25896
 Alpha virt. eigenvalues --    0.26831   0.27169   0.27410   0.28205   0.28825
 Alpha virt. eigenvalues --    0.29707   0.29901   0.30896   0.33737   0.34848
 Alpha virt. eigenvalues --    0.35108   0.35952   0.36544   0.38469   0.39635
 Alpha virt. eigenvalues --    0.40687   0.41656   0.42478   0.44209   0.46470
 Alpha virt. eigenvalues --    0.47789   0.49086   0.50699   0.51975   0.52298
 Alpha virt. eigenvalues --    0.52575   0.53439   0.53497   0.54244   0.55747
 Alpha virt. eigenvalues --    0.56715   0.57266   0.57740   0.58183   0.58327
 Alpha virt. eigenvalues --    0.58876   0.59824   0.60289   0.60669   0.61027
 Alpha virt. eigenvalues --    0.61375   0.62212   0.63284   0.63426   0.64715
 Alpha virt. eigenvalues --    0.65868   0.67117   0.68822   0.69032   0.70946
 Alpha virt. eigenvalues --    0.71909   0.72368   0.73457   0.74848   0.75500
 Alpha virt. eigenvalues --    0.76342   0.77292   0.78631   0.78772   0.79237
 Alpha virt. eigenvalues --    0.79704   0.81257   0.81433   0.81883   0.82860
 Alpha virt. eigenvalues --    0.83792   0.84234   0.84503   0.85648   0.86524
 Alpha virt. eigenvalues --    0.87067   0.89502   0.90117   0.90914   0.91578
 Alpha virt. eigenvalues --    0.92876   0.94462   0.94953   0.95635   0.96655
 Alpha virt. eigenvalues --    0.97740   0.98080   0.98532   0.99241   1.00311
 Alpha virt. eigenvalues --    1.01928   1.02507   1.03908   1.04250   1.05102
 Alpha virt. eigenvalues --    1.05435   1.07177   1.07576   1.08317   1.09382
 Alpha virt. eigenvalues --    1.09912   1.10992   1.11576   1.12534   1.12667
 Alpha virt. eigenvalues --    1.14975   1.15961   1.16348   1.17109   1.17943
 Alpha virt. eigenvalues --    1.18427   1.19154   1.19428   1.19787   1.20518
 Alpha virt. eigenvalues --    1.21463   1.21893   1.22418   1.23664   1.24018
 Alpha virt. eigenvalues --    1.24485   1.25472   1.26659   1.27212   1.27718
 Alpha virt. eigenvalues --    1.29092   1.29542   1.30848   1.33241   1.33540
 Alpha virt. eigenvalues --    1.34316   1.35615   1.36849   1.37176   1.37759
 Alpha virt. eigenvalues --    1.39324   1.40745   1.41244   1.42659   1.47158
 Alpha virt. eigenvalues --    1.47977   1.50477   1.52849   1.53307   1.55284
 Alpha virt. eigenvalues --    1.55596   1.56226   1.56843   1.58732   1.59884
 Alpha virt. eigenvalues --    1.61943   1.62876   1.64132   1.65912   1.67102
 Alpha virt. eigenvalues --    1.67701   1.68196   1.70062   1.70328   1.71472
 Alpha virt. eigenvalues --    1.72008   1.73067   1.74016   1.74414   1.74858
 Alpha virt. eigenvalues --    1.75425   1.76227   1.76328   1.77905   1.78563
 Alpha virt. eigenvalues --    1.79086   1.80205   1.80711   1.81156   1.82362
 Alpha virt. eigenvalues --    1.83951   1.84813   1.85862   1.86892   1.88491
 Alpha virt. eigenvalues --    1.88717   1.88919   1.89403   1.90595   1.91531
 Alpha virt. eigenvalues --    1.92014   1.92499   1.93665   1.95536   1.96925
 Alpha virt. eigenvalues --    1.97128   1.98220   1.99776   2.00357   2.01364
 Alpha virt. eigenvalues --    2.02835   2.04354   2.05229   2.07342   2.09276
 Alpha virt. eigenvalues --    2.10747   2.12519   2.13489   2.14572   2.16029
 Alpha virt. eigenvalues --    2.16522   2.17278   2.18539   2.19560   2.21280
 Alpha virt. eigenvalues --    2.22032   2.22469   2.23371   2.23860   2.27686
 Alpha virt. eigenvalues --    2.28943   2.30392   2.31118   2.31329   2.32234
 Alpha virt. eigenvalues --    2.34274   2.34795   2.36092   2.36436   2.38639
 Alpha virt. eigenvalues --    2.38836   2.40021   2.40930   2.42303   2.43476
 Alpha virt. eigenvalues --    2.44362   2.45376   2.45447   2.45983   2.46701
 Alpha virt. eigenvalues --    2.50181   2.51132   2.51962   2.53904   2.55296
 Alpha virt. eigenvalues --    2.56796   2.57389   2.58592   2.60359   2.61273
 Alpha virt. eigenvalues --    2.64339   2.65275   2.67551   2.68838   2.73275
 Alpha virt. eigenvalues --    2.74753   2.74956   2.76919   2.78090   2.79289
 Alpha virt. eigenvalues --    2.81409   2.83180   2.84535   2.86028   2.86798
 Alpha virt. eigenvalues --    2.90555   2.93695   2.95519   2.99821   3.01830
 Alpha virt. eigenvalues --    3.02638   3.06499   3.09679   3.12224   3.12425
 Alpha virt. eigenvalues --    3.13562   3.16121   3.18903   3.23310   3.26109
 Alpha virt. eigenvalues --    3.26532   3.27763   3.29634   3.31847   3.40670
 Alpha virt. eigenvalues --    3.48197   3.49908   3.61101   3.83749   4.02113
 Alpha virt. eigenvalues --    4.10198   4.13514   4.14011   4.17756   4.18765
 Alpha virt. eigenvalues --    4.20335   4.22289   4.23298   4.29502   4.31301
 Alpha virt. eigenvalues --    4.33190   4.36059   4.37273   4.42459   4.46461
 Alpha virt. eigenvalues --    4.50663   4.52565   4.60685   4.64074   4.70628
 Alpha virt. eigenvalues --    4.74874
  Beta  occ. eigenvalues --  -89.44083 -19.47779 -19.45993 -19.39206 -19.38373
  Beta  occ. eigenvalues --  -19.38217 -14.64623 -14.62574 -14.62545 -10.55587
  Beta  occ. eigenvalues --  -10.54925 -10.50684 -10.49926 -10.48039 -10.45964
  Beta  occ. eigenvalues --  -10.45839 -10.44337 -10.43754 -10.43570 -10.43439
  Beta  occ. eigenvalues --  -10.42654 -10.40209 -10.38623  -8.40729  -6.32582
  Beta  occ. eigenvalues --   -6.32414  -6.32338  -1.32430  -1.29503  -1.28886
  Beta  occ. eigenvalues --   -1.24376  -1.18348  -1.15362  -1.13543  -1.05303
  Beta  occ. eigenvalues --   -1.03180  -0.98243  -0.96635  -0.94879  -0.93820
  Beta  occ. eigenvalues --   -0.87969  -0.86957  -0.86375  -0.82502  -0.81899
  Beta  occ. eigenvalues --   -0.78480  -0.77516  -0.75698  -0.75367  -0.72612
  Beta  occ. eigenvalues --   -0.71797  -0.67355  -0.66941  -0.66448  -0.65590
  Beta  occ. eigenvalues --   -0.64719  -0.63734  -0.63659  -0.63111  -0.62452
  Beta  occ. eigenvalues --   -0.61449  -0.61131  -0.60721  -0.59942  -0.59025
  Beta  occ. eigenvalues --   -0.58023  -0.56583  -0.56046  -0.54882  -0.54591
  Beta  occ. eigenvalues --   -0.54554  -0.54010  -0.52958  -0.52715  -0.51498
  Beta  occ. eigenvalues --   -0.50556  -0.49100  -0.48404  -0.47500  -0.47104
  Beta  occ. eigenvalues --   -0.46683  -0.44702  -0.43924  -0.42758  -0.42345
  Beta  occ. eigenvalues --   -0.39708
  Beta virt. eigenvalues --   -0.35358  -0.22688  -0.17462  -0.15550  -0.13853
  Beta virt. eigenvalues --   -0.13191  -0.12290  -0.11839  -0.11637  -0.10850
  Beta virt. eigenvalues --   -0.10443  -0.09828  -0.09455  -0.09202  -0.08933
  Beta virt. eigenvalues --   -0.08720  -0.08168  -0.08046  -0.07429  -0.07136
  Beta virt. eigenvalues --   -0.06802  -0.06425  -0.06297  -0.05758  -0.05469
  Beta virt. eigenvalues --   -0.05150  -0.04855  -0.04522  -0.04385  -0.04315
  Beta virt. eigenvalues --   -0.03917  -0.03799  -0.03423  -0.03127  -0.02583
  Beta virt. eigenvalues --   -0.02448  -0.01937  -0.01633  -0.01226  -0.00986
  Beta virt. eigenvalues --   -0.00455  -0.00281   0.00138   0.00527   0.01113
  Beta virt. eigenvalues --    0.01491   0.01691   0.01906   0.02144   0.02645
  Beta virt. eigenvalues --    0.02927   0.03585   0.03652   0.04069   0.04443
  Beta virt. eigenvalues --    0.04521   0.04901   0.05357   0.05707   0.05866
  Beta virt. eigenvalues --    0.06317   0.07112   0.07622   0.07787   0.08000
  Beta virt. eigenvalues --    0.08483   0.08517   0.08701   0.09026   0.09547
  Beta virt. eigenvalues --    0.09705   0.10083   0.10393   0.10455   0.10650
  Beta virt. eigenvalues --    0.11165   0.11540   0.11888   0.12173   0.12452
  Beta virt. eigenvalues --    0.12900   0.12971   0.13420   0.13611   0.13814
  Beta virt. eigenvalues --    0.14136   0.14535   0.14992   0.15224   0.15587
  Beta virt. eigenvalues --    0.15640   0.16139   0.16729   0.16956   0.17586
  Beta virt. eigenvalues --    0.17731   0.17975   0.18303   0.18638   0.18803
  Beta virt. eigenvalues --    0.19095   0.19824   0.20151   0.20584   0.20954
  Beta virt. eigenvalues --    0.21039   0.21437   0.21696   0.22043   0.22474
  Beta virt. eigenvalues --    0.22928   0.23630   0.24057   0.24468   0.25360
  Beta virt. eigenvalues --    0.25952   0.26851   0.27238   0.27377   0.28239
  Beta virt. eigenvalues --    0.29008   0.29833   0.29973   0.30998   0.33971
  Beta virt. eigenvalues --    0.34978   0.35469   0.36324   0.36648   0.38640
  Beta virt. eigenvalues --    0.39721   0.40872   0.41709   0.42659   0.44359
  Beta virt. eigenvalues --    0.46785   0.48063   0.49339   0.50820   0.52015
  Beta virt. eigenvalues --    0.52372   0.52747   0.53548   0.53588   0.54372
  Beta virt. eigenvalues --    0.55926   0.56859   0.57340   0.57862   0.58170
  Beta virt. eigenvalues --    0.58442   0.58991   0.59882   0.60345   0.60718
  Beta virt. eigenvalues --    0.61109   0.61519   0.62319   0.63388   0.63564
  Beta virt. eigenvalues --    0.64748   0.65995   0.67265   0.68970   0.69137
  Beta virt. eigenvalues --    0.71148   0.72011   0.72381   0.73609   0.74907
  Beta virt. eigenvalues --    0.75588   0.76317   0.77409   0.78732   0.78890
  Beta virt. eigenvalues --    0.79325   0.79928   0.81443   0.81529   0.82363
  Beta virt. eigenvalues --    0.83365   0.83941   0.84511   0.84664   0.85743
  Beta virt. eigenvalues --    0.86599   0.87127   0.89623   0.90211   0.90955
  Beta virt. eigenvalues --    0.91669   0.92956   0.94575   0.95090   0.95773
  Beta virt. eigenvalues --    0.96744   0.97814   0.98283   0.98617   0.99338
  Beta virt. eigenvalues --    1.00415   1.02088   1.02635   1.04078   1.04345
  Beta virt. eigenvalues --    1.05304   1.05582   1.07478   1.07688   1.08670
  Beta virt. eigenvalues --    1.09528   1.10131   1.11072   1.11809   1.12671
  Beta virt. eigenvalues --    1.12901   1.15126   1.16029   1.16485   1.17205
  Beta virt. eigenvalues --    1.18049   1.18528   1.19289   1.19821   1.19951
  Beta virt. eigenvalues --    1.20586   1.21558   1.21989   1.22521   1.23809
  Beta virt. eigenvalues --    1.24172   1.24595   1.25561   1.26732   1.27300
  Beta virt. eigenvalues --    1.27851   1.29498   1.29627   1.30983   1.33303
  Beta virt. eigenvalues --    1.33671   1.34441   1.35901   1.37069   1.37378
  Beta virt. eigenvalues --    1.37848   1.39497   1.41044   1.41629   1.42894
  Beta virt. eigenvalues --    1.47450   1.48306   1.50762   1.53014   1.53580
  Beta virt. eigenvalues --    1.55414   1.55761   1.56412   1.57175   1.58969
  Beta virt. eigenvalues --    1.60298   1.62266   1.63169   1.64334   1.66170
  Beta virt. eigenvalues --    1.67326   1.67889   1.68402   1.70230   1.70469
  Beta virt. eigenvalues --    1.71759   1.72219   1.73184   1.74434   1.74649
  Beta virt. eigenvalues --    1.75041   1.75545   1.76395   1.76646   1.78114
  Beta virt. eigenvalues --    1.78774   1.79232   1.80529   1.80815   1.81316
  Beta virt. eigenvalues --    1.82488   1.84067   1.85046   1.86289   1.87173
  Beta virt. eigenvalues --    1.88541   1.88709   1.88985   1.89558   1.90592
  Beta virt. eigenvalues --    1.91633   1.92164   1.92594   1.93723   1.95641
  Beta virt. eigenvalues --    1.97095   1.97243   1.98344   1.99916   2.00538
  Beta virt. eigenvalues --    2.01459   2.02869   2.04588   2.05533   2.07679
  Beta virt. eigenvalues --    2.09652   2.11040   2.12881   2.13818   2.14907
  Beta virt. eigenvalues --    2.16426   2.16908   2.17447   2.18693   2.19869
  Beta virt. eigenvalues --    2.21361   2.22244   2.22754   2.23605   2.24103
  Beta virt. eigenvalues --    2.27817   2.29260   2.30574   2.31378   2.31533
  Beta virt. eigenvalues --    2.32419   2.34374   2.35060   2.36302   2.36822
  Beta virt. eigenvalues --    2.38887   2.39006   2.40197   2.41198   2.42612
  Beta virt. eigenvalues --    2.43702   2.44503   2.45584   2.45677   2.46230
  Beta virt. eigenvalues --    2.46945   2.50250   2.51465   2.52181   2.54138
  Beta virt. eigenvalues --    2.55415   2.57033   2.57710   2.58879   2.60642
  Beta virt. eigenvalues --    2.61573   2.64600   2.65781   2.67685   2.69217
  Beta virt. eigenvalues --    2.73387   2.74960   2.75111   2.77675   2.78311
  Beta virt. eigenvalues --    2.79755   2.81763   2.83412   2.84729   2.86137
  Beta virt. eigenvalues --    2.86977   2.90667   2.93936   2.95683   2.99974
  Beta virt. eigenvalues --    3.02342   3.02948   3.06599   3.09426   3.12366
  Beta virt. eigenvalues --    3.12441   3.13643   3.16076   3.19335   3.23764
  Beta virt. eigenvalues --    3.26185   3.26533   3.27712   3.29586   3.31889
  Beta virt. eigenvalues --    3.40903   3.48340   3.50119   3.61007   3.83813
  Beta virt. eigenvalues --    4.02866   4.10507   4.13830   4.14415   4.18013
  Beta virt. eigenvalues --    4.19126   4.20568   4.22797   4.23619   4.29635
  Beta virt. eigenvalues --    4.31482   4.33465   4.36276   4.37346   4.42594
  Beta virt. eigenvalues --    4.46563   4.50857   4.53202   4.60784   4.64302
  Beta virt. eigenvalues --    4.70930   4.74921
          Condensed to atoms (all electrons):
               1          2          3          4          5          6
     1  C   23.670434  -5.853265   0.537972  -0.484257   0.492158  -6.499244
     2  C   -5.853265  12.969222  -0.541723  -1.302020   2.930326  -3.199619
     3  C    0.537972  -0.541723   8.394980   0.020578   0.094328  -2.426883
     4  C   -0.484257  -1.302020   0.020578  10.271087  -4.336963   3.777281
     5  C    0.492158   2.930326   0.094328  -4.336963  15.784473  -9.708985
     6  C   -6.499244  -3.199619  -2.426883   3.777281  -9.708985  33.984939
     7  H    0.022781   0.273572   0.042731   0.000891  -0.012968  -0.070559
     8  H    0.041959   0.004061   0.229555   0.060343   0.006407  -0.012545
     9  H   -0.013946   0.002295   0.069635   0.217214   0.006067   0.055653
    10  H   -0.001358  -0.022916   0.005401  -0.031914   0.281808  -0.109845
    11  C   -2.548415  -2.135650  -0.643925   0.701825  -2.461734  10.564548
    12  C    0.919114   0.911233   0.014880  -2.380101   2.198113 -14.877084
    13  S   -1.346368   1.101354   0.237677  -0.455818   0.674962  -2.318399
    14  O    0.164063  -0.083709  -0.006477   0.008211  -0.010613   0.010040
    15  O   -0.130054   0.126356   0.155361  -0.027361   0.050684  -0.566125
    16  N   -1.055195   0.148279  -0.164351   0.262413  -0.209193   2.121719
    17  C   -0.001964   0.072016   0.071587   0.050902  -0.137380   0.507814
    18  H    0.012118  -0.003873   0.000668  -0.002677  -0.002509  -0.084111
    19  H   -0.014220  -0.004691  -0.005697   0.015018  -0.006193   0.149326
    20  H    0.006824   0.000542   0.000195   0.000004   0.000578  -0.006583
    21  O   -0.184065   0.011402  -0.008782   0.034896   0.073042  -0.643687
    22  H    0.016749   0.002491  -0.000063  -0.006104  -0.005354   0.093192
    23  C   -0.303636   0.320823  -0.114112  -0.362171   0.315630  -4.927584
    24  O    0.002420  -0.004023   0.000448   0.001236  -0.008831   0.085317
    25  N   -0.122749  -0.037870  -0.010778   0.006855   0.023814  -0.204645
    26  H   -0.003222  -0.001289  -0.000230   0.000112   0.000202   0.007877
    27  C   -0.074060  -0.018194  -0.007370  -0.001817   0.024543  -0.446748
    28  N   -0.002366  -0.000417  -0.000032   0.000141   0.001392   0.001034
    29  C   -0.006503   0.000858  -0.000003   0.000090   0.006345  -0.021151
    30  C   -0.004202   0.002720  -0.000810  -0.001450   0.002284  -0.066512
    31  C   -0.000496   0.000007   0.000000   0.000013   0.000446  -0.002887
    32  H    0.000000   0.000000   0.000000  -0.000000  -0.000000  -0.000001
    33  H   -0.000000  -0.000000  -0.000000   0.000000   0.000000   0.000000
    34  H    0.000000   0.000000  -0.000000  -0.000000  -0.000000   0.000002
    35  O    0.000171   0.000039   0.000001  -0.000003  -0.000088   0.000757
    36  H    0.000071  -0.000006   0.000000  -0.000003  -0.000114  -0.000036
               7          8          9         10         11         12
     1  C    0.022781   0.041959  -0.013946  -0.001358  -2.548415   0.919114
     2  C    0.273572   0.004061   0.002295  -0.022916  -2.135650   0.911233
     3  C    0.042731   0.229555   0.069635   0.005401  -0.643925   0.014880
     4  C    0.000891   0.060343   0.217214  -0.031914   0.701825  -2.380101
     5  C   -0.012968   0.006407   0.006067   0.281808  -2.461734   2.198113
     6  C   -0.070559  -0.012545   0.055653  -0.109845  10.564548 -14.877084
     7  H    0.462275  -0.003920  -0.000115   0.000012   0.002528  -0.004516
     8  H   -0.003920   0.473859  -0.004210  -0.000122  -0.001659   0.000634
     9  H   -0.000115  -0.004210   0.478571  -0.004124  -0.011531   0.000390
    10  H    0.000012  -0.000122  -0.004124   0.483654   0.119338   0.057467
    11  C    0.002528  -0.001659  -0.011531   0.119338  26.574055 -12.824009
    12  C   -0.004516   0.000634   0.000390   0.057467 -12.824009  28.214308
    13  S    0.068034  -0.004316  -0.000159   0.003354  -1.492083   0.222203
    14  O   -0.001152   0.000001   0.000002  -0.000000   0.046444  -0.201556
    15  O    0.002156   0.000122  -0.000002   0.000013  -0.215884   0.458089
    16  N   -0.000610  -0.000035  -0.000006   0.000017   1.729862  -4.234951
    17  C   -0.000841   0.000017  -0.000010   0.000200   0.501497  -1.576323
    18  H    0.000000   0.000000   0.000000   0.000000  -0.188797   0.079470
    19  H   -0.000000  -0.000000  -0.000000  -0.000006   0.125885  -0.152078
    20  H   -0.000001   0.000000  -0.000000  -0.000000   0.006566   0.037286
    21  O    0.000008   0.000003   0.000139  -0.001366   0.019186   0.490088
    22  H   -0.000000   0.000000  -0.000000   0.000049   0.140349  -0.183566
    23  C   -0.000465  -0.000058  -0.000169   0.013282  -8.934533   8.663543
    24  O   -0.000000   0.000000   0.000000  -0.000114  -0.007838  -0.225359
    25  N   -0.000037  -0.000000   0.000000  -0.000012  -0.504765   0.374326
    26  H   -0.000000  -0.000000   0.000000   0.000000   0.025750   0.000379
    27  C    0.000014   0.000000  -0.000000   0.000082  -1.744662   0.390311
    28  N   -0.000000  -0.000000   0.000000  -0.000000   0.016015  -0.084618
    29  C    0.000000   0.000000  -0.000000   0.000001  -0.115749  -0.256929
    30  C   -0.000000  -0.000000  -0.000000  -0.000005  -0.535152   0.192420
    31  C    0.000000   0.000000  -0.000000   0.000000  -0.023260  -0.038291
    32  H   -0.000000   0.000000   0.000000   0.000000  -0.000045  -0.000107
    33  H    0.000000   0.000000  -0.000000  -0.000000   0.000043  -0.000019
    34  H   -0.000000   0.000000  -0.000000   0.000000  -0.000022   0.000148
    35  O    0.000000   0.000000  -0.000000   0.000000   0.003215   0.021567
    36  H    0.000000   0.000000  -0.000000   0.000000  -0.001438  -0.001182
              13         14         15         16         17         18
     1  C   -1.346368   0.164063  -0.130054  -1.055195  -0.001964   0.012118
     2  C    1.101354  -0.083709   0.126356   0.148279   0.072016  -0.003873
     3  C    0.237677  -0.006477   0.155361  -0.164351   0.071587   0.000668
     4  C   -0.455818   0.008211  -0.027361   0.262413   0.050902  -0.002677
     5  C    0.674962  -0.010613   0.050684  -0.209193  -0.137380  -0.002509
     6  C   -2.318399   0.010040  -0.566125   2.121719   0.507814  -0.084111
     7  H    0.068034  -0.001152   0.002156  -0.000610  -0.000841   0.000000
     8  H   -0.004316   0.000001   0.000122  -0.000035   0.000017   0.000000
     9  H   -0.000159   0.000002  -0.000002  -0.000006  -0.000010   0.000000
    10  H    0.003354  -0.000000   0.000013   0.000017   0.000200   0.000000
    11  C   -1.492083   0.046444  -0.215884   1.729862   0.501497  -0.188797
    12  C    0.222203  -0.201556   0.458089  -4.234951  -1.576323   0.079470
    13  S   17.326506   0.351993   0.593848  -0.239846  -0.002955   0.052595
    14  O    0.351993   8.351008  -0.219708   0.036391   0.070920  -0.000197
    15  O    0.593848  -0.219708   8.584887  -0.305337  -0.123185   0.001620
    16  N   -0.239846   0.036391  -0.305337  11.036853   0.630095  -0.023078
    17  C   -0.002955   0.070920  -0.123185   0.630095   5.636192   0.363093
    18  H    0.052595  -0.000197   0.001620  -0.023078   0.363093   0.509866
    19  H   -0.072730  -0.001295  -0.002466  -0.011785   0.397148  -0.028914
    20  H   -0.005239   0.000700   0.001737  -0.090909   0.412896  -0.014007
    21  O    0.003666  -0.000582  -0.000867  -0.001728  -0.011929   0.000696
    22  H    0.002513  -0.000036   0.000020  -0.002169  -0.000963  -0.000004
    23  C    0.213236  -0.077107   0.054191  -1.252803  -0.388605   0.093258
    24  O   -0.010492   0.000726   0.000115   0.024886   0.012914  -0.001918
    25  N   -0.038751  -0.028061  -0.000219  -0.311054  -0.137067   0.011641
    26  H   -0.008238  -0.000384  -0.000335   0.007861  -0.010515  -0.001257
    27  C   -0.025790  -0.032995   0.006868  -0.411942  -0.151832   0.037739
    28  N   -0.001254   0.000168  -0.000218  -0.007514  -0.007114  -0.000207
    29  C    0.017952   0.000232  -0.000227   0.057544   0.011375   0.000961
    30  C   -0.023443  -0.002903   0.000636  -0.072268  -0.034324  -0.000373
    31  C    0.000895   0.000045  -0.000006   0.005590   0.001454   0.000002
    32  H    0.000000   0.000000  -0.000000   0.000000   0.000003   0.000000
    33  H   -0.000000   0.000000  -0.000000  -0.000000  -0.000002   0.000000
    34  H    0.000000  -0.000000   0.000000  -0.000001   0.000000  -0.000000
    35  O    0.000360  -0.000022   0.000001  -0.000713  -0.000250   0.000023
    36  H    0.000018  -0.000001   0.000000   0.000062  -0.000037   0.000000
              19         20         21         22         23         24
     1  C   -0.014220   0.006824  -0.184065   0.016749  -0.303636   0.002420
     2  C   -0.004691   0.000542   0.011402   0.002491   0.320823  -0.004023
     3  C   -0.005697   0.000195  -0.008782  -0.000063  -0.114112   0.000448
     4  C    0.015018   0.000004   0.034896  -0.006104  -0.362171   0.001236
     5  C   -0.006193   0.000578   0.073042  -0.005354   0.315630  -0.008831
     6  C    0.149326  -0.006583  -0.643687   0.093192  -4.927584   0.085317
     7  H   -0.000000  -0.000001   0.000008  -0.000000  -0.000465  -0.000000
     8  H   -0.000000   0.000000   0.000003   0.000000  -0.000058   0.000000
     9  H   -0.000000  -0.000000   0.000139  -0.000000  -0.000169   0.000000
    10  H   -0.000006  -0.000000  -0.001366   0.000049   0.013282  -0.000114
    11  C    0.125885   0.006566   0.019186   0.140349  -8.934533  -0.007838
    12  C   -0.152078   0.037286   0.490088  -0.183566   8.663543  -0.225359
    13  S   -0.072730  -0.005239   0.003666   0.002513   0.213236  -0.010492
    14  O   -0.001295   0.000700  -0.000582  -0.000036  -0.077107   0.000726
    15  O   -0.002466   0.001737  -0.000867   0.000020   0.054191   0.000115
    16  N   -0.011785  -0.090909  -0.001728  -0.002169  -1.252803   0.024886
    17  C    0.397148   0.412896  -0.011929  -0.000963  -0.388605   0.012914
    18  H   -0.028914  -0.014007   0.000696  -0.000004   0.093258  -0.001918
    19  H    0.499378  -0.023535  -0.001089   0.000003  -0.053484   0.000506
    20  H   -0.023535   0.442000   0.000000   0.000000  -0.004446   0.000063
    21  O   -0.001089   0.000000   8.325434   0.150089   0.175060  -0.006174
    22  H    0.000003   0.000000   0.150089   0.297647  -0.045039   0.069274
    23  C   -0.053484  -0.004446   0.175060  -0.045039  12.873204   0.287904
    24  O    0.000506   0.000063  -0.006174   0.069274   0.287904   8.387025
    25  N   -0.001871  -0.003332  -0.000985   0.008378   0.670804  -0.179210
    26  H    0.000091   0.000029   0.000057  -0.000047  -0.067004   0.007232
    27  C   -0.006528   0.000231  -0.006402   0.013283  -1.168701   0.096044
    28  N    0.000026  -0.000068   0.000052  -0.000044  -0.321516   0.005773
    29  C   -0.000113   0.000111   0.000615  -0.000485  -0.968580   0.093019
    30  C    0.000165  -0.000156   0.016374  -0.008420   0.846274  -0.037358
    31  C   -0.000002   0.000002   0.000126  -0.000036  -0.222149   0.008744
    32  H   -0.000000  -0.000000   0.000000  -0.000000  -0.000067  -0.000000
    33  H    0.000000   0.000000  -0.000000   0.000000   0.001413  -0.000006
    34  H   -0.000000  -0.000000   0.000000  -0.000000  -0.000816  -0.000003
    35  O   -0.000000  -0.000001   0.000002   0.000000   0.078242  -0.001730
    36  H   -0.000000   0.000000  -0.000035   0.000041   0.020033  -0.004730
              25         26         27         28         29         30
     1  C   -0.122749  -0.003222  -0.074060  -0.002366  -0.006503  -0.004202
     2  C   -0.037870  -0.001289  -0.018194  -0.000417   0.000858   0.002720
     3  C   -0.010778  -0.000230  -0.007370  -0.000032  -0.000003  -0.000810
     4  C    0.006855   0.000112  -0.001817   0.000141   0.000090  -0.001450
     5  C    0.023814   0.000202   0.024543   0.001392   0.006345   0.002284
     6  C   -0.204645   0.007877  -0.446748   0.001034  -0.021151  -0.066512
     7  H   -0.000037  -0.000000   0.000014  -0.000000   0.000000  -0.000000
     8  H   -0.000000  -0.000000   0.000000  -0.000000   0.000000  -0.000000
     9  H    0.000000   0.000000  -0.000000   0.000000  -0.000000  -0.000000
    10  H   -0.000012   0.000000   0.000082  -0.000000   0.000001  -0.000005
    11  C   -0.504765   0.025750  -1.744662   0.016015  -0.115749  -0.535152
    12  C    0.374326   0.000379   0.390311  -0.084618  -0.256929   0.192420
    13  S   -0.038751  -0.008238  -0.025790  -0.001254   0.017952  -0.023443
    14  O   -0.028061  -0.000384  -0.032995   0.000168   0.000232  -0.002903
    15  O   -0.000219  -0.000335   0.006868  -0.000218  -0.000227   0.000636
    16  N   -0.311054   0.007861  -0.411942  -0.007514   0.057544  -0.072268
    17  C   -0.137067  -0.010515  -0.151832  -0.007114   0.011375  -0.034324
    18  H    0.011641  -0.001257   0.037739  -0.000207   0.000961  -0.000373
    19  H   -0.001871   0.000091  -0.006528   0.000026  -0.000113   0.000165
    20  H   -0.003332   0.000029   0.000231  -0.000068   0.000111  -0.000156
    21  O   -0.000985   0.000057  -0.006402   0.000052   0.000615   0.016374
    22  H    0.008378  -0.000047   0.013283  -0.000044  -0.000485  -0.008420
    23  C    0.670804  -0.067004  -1.168701  -0.321516  -0.968580   0.846274
    24  O   -0.179210   0.007232   0.096044   0.005773   0.093019  -0.037358
    25  N    7.584565   0.248684   0.410109  -0.138124  -0.336122  -0.029457
    26  H    0.248684   0.346860   0.017657   0.019761   0.046703  -0.007619
    27  C    0.410109   0.017657  14.075707  -0.897712   0.122572  -2.149284
    28  N   -0.138124   0.019761  -0.897712   7.469818   0.818421  -0.334126
    29  C   -0.336122   0.046703   0.122572   0.818421  12.052627  -5.211324
    30  C   -0.029457  -0.007619  -2.149284  -0.334126  -5.211324  14.812959
    31  C   -0.060790   0.003466  -2.357723   0.836324   0.165294  -2.321569
    32  H   -0.000012  -0.000000  -0.008017   0.000048  -0.055739   0.025545
    33  H   -0.000004  -0.000000  -0.010765  -0.000299  -0.074516   0.031041
    34  H    0.000192   0.000000   0.027415  -0.004066  -0.037176   0.023184
    35  O    0.043065  -0.002275  -0.024114   0.068745   0.089897   0.122716
    36  H   -0.002105  -0.000097   0.155251  -0.010680   0.008781   0.201403
              31         32         33         34         35         36
     1  C   -0.000496   0.000000  -0.000000   0.000000   0.000171   0.000071
     2  C    0.000007   0.000000  -0.000000   0.000000   0.000039  -0.000006
     3  C    0.000000   0.000000  -0.000000  -0.000000   0.000001   0.000000
     4  C    0.000013  -0.000000   0.000000  -0.000000  -0.000003  -0.000003
     5  C    0.000446  -0.000000   0.000000  -0.000000  -0.000088  -0.000114
     6  C   -0.002887  -0.000001   0.000000   0.000002   0.000757  -0.000036
     7  H    0.000000  -0.000000   0.000000  -0.000000   0.000000   0.000000
     8  H    0.000000   0.000000   0.000000   0.000000   0.000000   0.000000
     9  H   -0.000000   0.000000  -0.000000  -0.000000  -0.000000  -0.000000
    10  H    0.000000   0.000000  -0.000000   0.000000   0.000000   0.000000
    11  C   -0.023260  -0.000045   0.000043  -0.000022   0.003215  -0.001438
    12  C   -0.038291  -0.000107  -0.000019   0.000148   0.021567  -0.001182
    13  S    0.000895   0.000000  -0.000000   0.000000   0.000360   0.000018
    14  O    0.000045   0.000000   0.000000  -0.000000  -0.000022  -0.000001
    15  O   -0.000006  -0.000000  -0.000000   0.000000   0.000001   0.000000
    16  N    0.005590   0.000000  -0.000000  -0.000001  -0.000713   0.000062
    17  C    0.001454   0.000003  -0.000002   0.000000  -0.000250  -0.000037
    18  H    0.000002   0.000000   0.000000  -0.000000   0.000023   0.000000
    19  H   -0.000002  -0.000000   0.000000  -0.000000  -0.000000  -0.000000
    20  H    0.000002  -0.000000   0.000000  -0.000000  -0.000001   0.000000
    21  O    0.000126   0.000000  -0.000000   0.000000   0.000002  -0.000035
    22  H   -0.000036  -0.000000   0.000000  -0.000000   0.000000   0.000041
    23  C   -0.222149  -0.000067   0.001413  -0.000816   0.078242   0.020033
    24  O    0.008744  -0.000000  -0.000006  -0.000003  -0.001730  -0.004730
    25  N   -0.060790  -0.000012  -0.000004   0.000192   0.043065  -0.002105
    26  H    0.003466  -0.000000  -0.000000   0.000000  -0.002275  -0.000097
    27  C   -2.357723  -0.008017  -0.010765   0.027415  -0.024114   0.155251
    28  N    0.836324   0.000048  -0.000299  -0.004066   0.068745  -0.010680
    29  C    0.165294  -0.055739  -0.074516  -0.037176   0.089897   0.008781
    30  C   -2.321569   0.025545   0.031041   0.023184   0.122716   0.201403
    31  C    9.722246   0.397418   0.411812   0.339487  -0.265303  -0.042661
    32  H    0.397418   0.467504  -0.020547  -0.020462  -0.005286   0.000026
    33  H    0.411812  -0.020547   0.466173  -0.020247  -0.005219   0.000031
    34  H    0.339487  -0.020462  -0.020247   0.484371   0.009005   0.000051
    35  O   -0.265303  -0.005286  -0.005219   0.009005   7.691700   0.008929
    36  H   -0.042661   0.000026   0.000031   0.000051   0.008929   0.452301
          Atomic-Atomic Spin Densities.
               1          2          3          4          5          6
     1  C   -0.003843   0.051228  -0.019352  -0.007603  -0.013223   0.051347
     2  C    0.051228  -0.091510  -0.008555   0.051206  -0.131705   0.158061
     3  C   -0.019352  -0.008555   0.078088   0.038629  -0.018798   0.059126
     4  C   -0.007603   0.051206   0.038629  -0.176568   0.213113  -0.224861
     5  C   -0.013223  -0.131705  -0.018798   0.213113  -0.271248   0.340241
     6  C    0.051347   0.158061   0.059126  -0.224861   0.340241  -0.385358
     7  H    0.001454  -0.001647   0.000283  -0.000006  -0.000133   0.000634
     8  H   -0.000242  -0.001546   0.002672  -0.000794   0.000039  -0.000202
     9  H    0.000325   0.000287   0.000037  -0.000265   0.000025  -0.000332
    10  H   -0.001880   0.000203  -0.000373   0.000527   0.000096   0.001093
    11  C    0.098153   0.079724   0.013497  -0.044391   0.061979  -0.297943
    12  C   -0.127419  -0.118470  -0.019525   0.119221  -0.145774   0.400169
    13  S    0.012299   0.021744  -0.042999  -0.012304   0.025082  -0.212139
    14  O   -0.004439   0.000629  -0.001299  -0.000462   0.001147  -0.002685
    15  O    0.002292  -0.008663  -0.000596   0.001714  -0.002685   0.006781
    16  N    0.053897   0.023088   0.010888  -0.017287   0.023196  -0.077218
    17  C   -0.011394  -0.008816   0.002626   0.004831  -0.003779   0.041954
    18  H   -0.000910  -0.000323  -0.000076   0.000090   0.000157   0.001140
    19  H   -0.000493   0.000065   0.000273   0.000151  -0.000844   0.002632
    20  H    0.000944   0.000790   0.000257  -0.000043  -0.000085  -0.000388
    21  O    0.001765  -0.000159  -0.000141   0.002219   0.002502   0.001802
    22  H   -0.000606  -0.000014  -0.000026  -0.000092  -0.001096   0.002779
    23  C   -0.046805  -0.021318  -0.001874   0.019583  -0.024993   0.127317
    24  O   -0.000025  -0.000120   0.000024   0.000119  -0.000245   0.001545
    25  N   -0.004329  -0.000969  -0.000200   0.000710  -0.001061   0.010353
    26  H    0.000040  -0.000030  -0.000002   0.000002   0.000012  -0.000145
    27  C   -0.005967  -0.000815  -0.000071   0.000556  -0.000958   0.010136
    28  N   -0.000196   0.000009  -0.000003   0.000003   0.000013   0.000088
    29  C    0.000099   0.000012   0.000006  -0.000011  -0.000056  -0.000851
    30  C    0.000053  -0.000093  -0.000006   0.000056  -0.000105  -0.000100
    31  C    0.000049   0.000004   0.000000  -0.000002  -0.000010  -0.000156
    32  H   -0.000000   0.000000   0.000000   0.000000   0.000000   0.000000
    33  H    0.000000  -0.000000  -0.000000  -0.000000  -0.000000  -0.000000
    34  H   -0.000000  -0.000000   0.000000   0.000000   0.000000  -0.000000
    35  O    0.000005   0.000001  -0.000000   0.000000   0.000001   0.000011
    36  H   -0.000001   0.000000  -0.000000  -0.000000  -0.000001   0.000004
               7          8          9         10         11         12
     1  C    0.001454  -0.000242   0.000325  -0.001880   0.098153  -0.127419
     2  C   -0.001647  -0.001546   0.000287   0.000203   0.079724  -0.118470
     3  C    0.000283   0.002672   0.000037  -0.000373   0.013497  -0.019525
     4  C   -0.000006  -0.000794  -0.000265   0.000527  -0.044391   0.119221
     5  C   -0.000133   0.000039   0.000025   0.000096   0.061979  -0.145774
     6  C    0.000634  -0.000202  -0.000332   0.001093  -0.297943   0.400169
     7  H   -0.000000   0.000023  -0.000000   0.000000   0.000141   0.000224
     8  H    0.000023  -0.004028   0.000016   0.000001  -0.000014   0.000038
     9  H   -0.000000   0.000016   0.000960  -0.000016  -0.000213  -0.000030
    10  H    0.000000   0.000001  -0.000016  -0.002200   0.000326   0.000086
    11  C    0.000141  -0.000014  -0.000213   0.000326  -0.439884   0.466844
    12  C    0.000224   0.000038  -0.000030   0.000086   0.466844   0.096653
    13  S   -0.001112  -0.000037   0.000066  -0.000190  -0.092556   0.043525
    14  O   -0.000036   0.000000   0.000000  -0.000001  -0.006955   0.002201
    15  O    0.000062  -0.000001   0.000000  -0.000000   0.007639  -0.006906
    16  N   -0.000028  -0.000002   0.000002   0.000014  -0.131537   0.017935
    17  C    0.000042  -0.000000  -0.000001   0.000000   0.061527  -0.050742
    18  H   -0.000000   0.000000   0.000000  -0.000000   0.003040  -0.004246
    19  H    0.000001   0.000000  -0.000000   0.000000   0.001735   0.002400
    20  H    0.000000   0.000000  -0.000000   0.000000  -0.001100   0.003771
    21  O   -0.000000   0.000000   0.000000  -0.000048  -0.020078  -0.012628
    22  H    0.000000   0.000000  -0.000000  -0.000001   0.004680  -0.003784
    23  C    0.000018   0.000001  -0.000009   0.000016   0.202229  -0.204835
    24  O   -0.000000   0.000000   0.000000  -0.000001   0.008014  -0.003462
    25  N    0.000000   0.000000   0.000000   0.000000   0.026832  -0.039824
    26  H   -0.000000  -0.000000  -0.000000  -0.000000  -0.000376   0.000950
    27  C    0.000000   0.000000  -0.000000   0.000001   0.048463  -0.011719
    28  N   -0.000000   0.000000   0.000000  -0.000000  -0.000809   0.001656
    29  C    0.000000  -0.000000   0.000000   0.000000  -0.006165   0.000999
    30  C   -0.000000  -0.000000  -0.000000   0.000000  -0.004466   0.002348
    31  C    0.000000  -0.000000   0.000000   0.000000  -0.001933  -0.000597
    32  H    0.000000   0.000000  -0.000000   0.000000   0.000004   0.000006
    33  H   -0.000000   0.000000   0.000000  -0.000000  -0.000004  -0.000002
    34  H    0.000000   0.000000   0.000000  -0.000000   0.000000  -0.000002
    35  O    0.000000  -0.000000  -0.000000  -0.000000   0.000162  -0.000358
    36  H    0.000000   0.000000  -0.000000  -0.000000  -0.000031   0.000054
              13         14         15         16         17         18
     1  C    0.012299  -0.004439   0.002292   0.053897  -0.011394  -0.000910
     2  C    0.021744   0.000629  -0.008663   0.023088  -0.008816  -0.000323
     3  C   -0.042999  -0.001299  -0.000596   0.010888   0.002626  -0.000076
     4  C   -0.012304  -0.000462   0.001714  -0.017287   0.004831   0.000090
     5  C    0.025082   0.001147  -0.002685   0.023196  -0.003779   0.000157
     6  C   -0.212139  -0.002685   0.006781  -0.077218   0.041954   0.001140
     7  H   -0.001112  -0.000036   0.000062  -0.000028   0.000042  -0.000000
     8  H   -0.000037   0.000000  -0.000001  -0.000002  -0.000000   0.000000
     9  H    0.000066   0.000000   0.000000   0.000002  -0.000001   0.000000
    10  H   -0.000190  -0.000001  -0.000000   0.000014   0.000000  -0.000000
    11  C   -0.092556  -0.006955   0.007639  -0.131537   0.061527   0.003040
    12  C    0.043525   0.002201  -0.006906   0.017935  -0.050742  -0.004246
    13  S    0.273972   0.009606   0.004229  -0.046698   0.018137   0.001597
    14  O    0.009606   0.008637  -0.000813  -0.005172   0.000787   0.000014
    15  O    0.004229  -0.000813   0.004600   0.000640  -0.000744  -0.000027
    16  N   -0.046698  -0.005172   0.000640   0.017873   0.027698   0.001606
    17  C    0.018137   0.000787  -0.000744   0.027698  -0.022920  -0.000779
    18  H    0.001597   0.000014  -0.000027   0.001606  -0.000779   0.000336
    19  H   -0.005739  -0.000046  -0.000126  -0.000229   0.001192  -0.000141
    20  H   -0.005816  -0.000126  -0.000038  -0.001177   0.002282  -0.000257
    21  O    0.002921   0.000072  -0.000014   0.002718  -0.000787   0.000015
    22  H   -0.000615   0.000003  -0.000001   0.000188   0.000118  -0.000001
    23  C    0.013146   0.002467  -0.002498   0.048589  -0.023407  -0.000610
    24  O   -0.000586  -0.000043  -0.000000   0.000863  -0.001850  -0.000052
    25  N    0.002726   0.000303  -0.000207   0.011389  -0.003057   0.000757
    26  H   -0.000525  -0.000022  -0.000011  -0.000902   0.000126   0.000014
    27  C    0.000295   0.000215  -0.000321   0.008092  -0.008800  -0.001020
    28  N    0.000134  -0.000005  -0.000012  -0.000490   0.000394  -0.000006
    29  C   -0.000761  -0.000018  -0.000007  -0.000271   0.001427   0.000009
    30  C   -0.000012  -0.000006  -0.000004   0.000013   0.000373   0.000039
    31  C   -0.000114  -0.000002   0.000000  -0.000074   0.000199   0.000003
    32  H   -0.000000   0.000000  -0.000000   0.000000  -0.000001  -0.000000
    33  H    0.000000  -0.000000   0.000000  -0.000000   0.000001   0.000000
    34  H   -0.000000   0.000000  -0.000000  -0.000000   0.000000  -0.000000
    35  O   -0.000010   0.000000  -0.000000   0.000005   0.000043   0.000000
    36  H   -0.000003  -0.000000  -0.000000  -0.000003   0.000001  -0.000000
              19         20         21         22         23         24
     1  C   -0.000493   0.000944   0.001765  -0.000606  -0.046805  -0.000025
     2  C    0.000065   0.000790  -0.000159  -0.000014  -0.021318  -0.000120
     3  C    0.000273   0.000257  -0.000141  -0.000026  -0.001874   0.000024
     4  C    0.000151  -0.000043   0.002219  -0.000092   0.019583   0.000119
     5  C   -0.000844  -0.000085   0.002502  -0.001096  -0.024993  -0.000245
     6  C    0.002632  -0.000388   0.001802   0.002779   0.127317   0.001545
     7  H    0.000001   0.000000  -0.000000   0.000000   0.000018  -0.000000
     8  H    0.000000   0.000000   0.000000   0.000000   0.000001   0.000000
     9  H   -0.000000  -0.000000   0.000000  -0.000000  -0.000009   0.000000
    10  H    0.000000   0.000000  -0.000048  -0.000001   0.000016  -0.000001
    11  C    0.001735  -0.001100  -0.020078   0.004680   0.202229   0.008014
    12  C    0.002400   0.003771  -0.012628  -0.003784  -0.204835  -0.003462
    13  S   -0.005739  -0.005816   0.002921  -0.000615   0.013146  -0.000586
    14  O   -0.000046  -0.000126   0.000072   0.000003   0.002467  -0.000043
    15  O   -0.000126  -0.000038  -0.000014  -0.000001  -0.002498  -0.000000
    16  N   -0.000229  -0.001177   0.002718   0.000188   0.048589   0.000863
    17  C    0.001192   0.002282  -0.000787   0.000118  -0.023407  -0.001850
    18  H   -0.000141  -0.000257   0.000015  -0.000001  -0.000610  -0.000052
    19  H    0.000143   0.000568  -0.000078   0.000001   0.000009   0.000006
    20  H    0.000568   0.000548  -0.000005   0.000000   0.000470   0.000004
    21  O   -0.000078  -0.000005   0.088907  -0.001983   0.000213  -0.000505
    22  H    0.000001   0.000000  -0.001983  -0.001345  -0.000439   0.000526
    23  C    0.000009   0.000470   0.000213  -0.000439  -0.116454   0.014624
    24  O    0.000006   0.000004  -0.000505   0.000526   0.014624  -0.043895
    25  N   -0.000266   0.000038  -0.000117   0.000102  -0.013014   0.001772
    26  H   -0.000001  -0.000002   0.000006  -0.000001   0.001698  -0.000078
    27  C    0.000100   0.000200  -0.000801   0.000130  -0.028828  -0.001310
    28  N   -0.000001  -0.000008   0.000022  -0.000005  -0.003241   0.000027
    29  C    0.000006  -0.000005   0.000101  -0.000048  -0.004488   0.001621
    30  C    0.000000  -0.000008   0.000212  -0.000121   0.010227  -0.000930
    31  C    0.000000  -0.000000   0.000003  -0.000001  -0.002565   0.000125
    32  H    0.000000   0.000000  -0.000000   0.000000   0.000007  -0.000001
    33  H   -0.000000  -0.000000   0.000000  -0.000000  -0.000027   0.000000
    34  H    0.000000   0.000000  -0.000000   0.000000  -0.000008   0.000000
    35  O   -0.000000  -0.000000  -0.000001   0.000000   0.000382  -0.000023
    36  H    0.000000   0.000000  -0.000001   0.000000  -0.000174   0.000036
              25         26         27         28         29         30
     1  C   -0.004329   0.000040  -0.005967  -0.000196   0.000099   0.000053
     2  C   -0.000969  -0.000030  -0.000815   0.000009   0.000012  -0.000093
     3  C   -0.000200  -0.000002  -0.000071  -0.000003   0.000006  -0.000006
     4  C    0.000710   0.000002   0.000556   0.000003  -0.000011   0.000056
     5  C   -0.001061   0.000012  -0.000958   0.000013  -0.000056  -0.000105
     6  C    0.010353  -0.000145   0.010136   0.000088  -0.000851  -0.000100
     7  H    0.000000  -0.000000   0.000000  -0.000000   0.000000  -0.000000
     8  H    0.000000  -0.000000   0.000000   0.000000  -0.000000  -0.000000
     9  H    0.000000  -0.000000  -0.000000   0.000000   0.000000  -0.000000
    10  H    0.000000  -0.000000   0.000001  -0.000000   0.000000   0.000000
    11  C    0.026832  -0.000376   0.048463  -0.000809  -0.006165  -0.004466
    12  C   -0.039824   0.000950  -0.011719   0.001656   0.000999   0.002348
    13  S    0.002726  -0.000525   0.000295   0.000134  -0.000761  -0.000012
    14  O    0.000303  -0.000022   0.000215  -0.000005  -0.000018  -0.000006
    15  O   -0.000207  -0.000011  -0.000321  -0.000012  -0.000007  -0.000004
    16  N    0.011389  -0.000902   0.008092  -0.000490  -0.000271   0.000013
    17  C   -0.003057   0.000126  -0.008800   0.000394   0.001427   0.000373
    18  H    0.000757   0.000014  -0.001020  -0.000006   0.000009   0.000039
    19  H   -0.000266  -0.000001   0.000100  -0.000001   0.000006   0.000000
    20  H    0.000038  -0.000002   0.000200  -0.000008  -0.000005  -0.000008
    21  O   -0.000117   0.000006  -0.000801   0.000022   0.000101   0.000212
    22  H    0.000102  -0.000001   0.000130  -0.000005  -0.000048  -0.000121
    23  C   -0.013014   0.001698  -0.028828  -0.003241  -0.004488   0.010227
    24  O    0.001772  -0.000078  -0.001310   0.000027   0.001621  -0.000930
    25  N    0.217403   0.000093  -0.036095  -0.010059  -0.002861   0.001829
    26  H    0.000093  -0.005582  -0.000630  -0.000277  -0.000872   0.000474
    27  C   -0.036095  -0.000630  -0.012044   0.010222   0.042449  -0.044014
    28  N   -0.010059  -0.000277   0.010222   0.287152  -0.003480   0.004098
    29  C   -0.002861  -0.000872   0.042449  -0.003480   0.050687  -0.071933
    30  C    0.001829   0.000474  -0.044014   0.004098  -0.071933   0.117751
    31  C   -0.000677  -0.000070   0.006743   0.004966  -0.000986  -0.028244
    32  H    0.000008   0.000000  -0.000554   0.000018  -0.001615  -0.000167
    33  H   -0.000017  -0.000000   0.000556   0.000018   0.000904   0.000317
    34  H   -0.000006  -0.000000  -0.000113   0.000044   0.000704  -0.000240
    35  O    0.000512  -0.000008  -0.003995  -0.035712   0.011733   0.002222
    36  H    0.000097  -0.000000   0.000226  -0.000074  -0.000694   0.000746
              31         32         33         34         35         36
     1  C    0.000049  -0.000000   0.000000  -0.000000   0.000005  -0.000001
     2  C    0.000004   0.000000  -0.000000  -0.000000   0.000001   0.000000
     3  C    0.000000   0.000000  -0.000000   0.000000  -0.000000  -0.000000
     4  C   -0.000002   0.000000  -0.000000   0.000000   0.000000  -0.000000
     5  C   -0.000010   0.000000  -0.000000   0.000000   0.000001  -0.000001
     6  C   -0.000156   0.000000  -0.000000  -0.000000   0.000011   0.000004
     7  H    0.000000   0.000000  -0.000000   0.000000   0.000000   0.000000
     8  H   -0.000000   0.000000   0.000000   0.000000  -0.000000   0.000000
     9  H    0.000000  -0.000000   0.000000   0.000000  -0.000000  -0.000000
    10  H    0.000000   0.000000  -0.000000  -0.000000  -0.000000  -0.000000
    11  C   -0.001933   0.000004  -0.000004   0.000000   0.000162  -0.000031
    12  C   -0.000597   0.000006  -0.000002  -0.000002  -0.000358   0.000054
    13  S   -0.000114  -0.000000   0.000000  -0.000000  -0.000010  -0.000003
    14  O   -0.000002   0.000000  -0.000000   0.000000   0.000000  -0.000000
    15  O    0.000000  -0.000000   0.000000  -0.000000  -0.000000  -0.000000
    16  N   -0.000074   0.000000  -0.000000  -0.000000   0.000005  -0.000003
    17  C    0.000199  -0.000001   0.000001   0.000000   0.000043   0.000001
    18  H    0.000003  -0.000000   0.000000  -0.000000   0.000000  -0.000000
    19  H    0.000000   0.000000  -0.000000   0.000000  -0.000000   0.000000
    20  H   -0.000000   0.000000  -0.000000   0.000000  -0.000000   0.000000
    21  O    0.000003  -0.000000   0.000000  -0.000000  -0.000001  -0.000001
    22  H   -0.000001   0.000000  -0.000000   0.000000   0.000000   0.000000
    23  C   -0.002565   0.000007  -0.000027  -0.000008   0.000382  -0.000174
    24  O    0.000125  -0.000001   0.000000   0.000000  -0.000023   0.000036
    25  N   -0.000677   0.000008  -0.000017  -0.000006   0.000512   0.000097
    26  H   -0.000070   0.000000  -0.000000  -0.000000  -0.000008  -0.000000
    27  C    0.006743  -0.000554   0.000556  -0.000113  -0.003995   0.000226
    28  N    0.004966   0.000018   0.000018   0.000044  -0.035712  -0.000074
    29  C   -0.000986  -0.001615   0.000904   0.000704   0.011733  -0.000694
    30  C   -0.028244  -0.000167   0.000317  -0.000240   0.002222   0.000746
    31  C    0.028195   0.003292  -0.000733  -0.000307  -0.003226  -0.000116
    32  H    0.003292   0.001618  -0.000134  -0.000000  -0.000300   0.000001
    33  H   -0.000733  -0.000134   0.001396  -0.000010  -0.000312  -0.000000
    34  H   -0.000307  -0.000000  -0.000010  -0.000381  -0.000019  -0.000002
    35  O   -0.003226  -0.000300  -0.000312  -0.000019   0.052738   0.000032
    36  H   -0.000116   0.000001  -0.000000  -0.000002   0.000032  -0.000045
 Mulliken charges and spin densities:
[...]
   265. RY*(   5) N  16                  0.00059     0.61233   
   266. RY*(   6) N  16                  0.00043     1.10793   
   267. RY*(   7) N  16                  0.00034     1.49385   
   268. RY*(   8) N  16                  0.00025     0.60458   
   269. RY*(   9) N  16                  0.00021     1.53908   
   270. RY*(  10) N  16                  0.00014     1.61625   
   271. RY*(  11) N  16                  0.00011     2.20308   
   272. RY*(  12) N  16                  0.00004     2.00216   
   273. RY*(  13) N  16                  0.00004     2.06628   
   274. RY*(  14) N  16                  0.00002     3.62593   
   275. RY*(   1) C  17                  0.00129     0.62003   
   276. RY*(   2) C  17                  0.00093     1.07805   
   277. RY*(   3) C  17                  0.00082     0.44829   
   278. RY*(   4) C  17                  0.00028     1.31770   
   279. RY*(   5) C  17                  0.00014     1.05585   
   280. RY*(   6) C  17                  0.00011     0.50516   
   281. RY*(   7) C  17                  0.00006     0.36873   
   282. RY*(   8) C  17                  0.00005     1.55300   
   283. RY*(   9) C  17                  0.00003     0.51395   
   284. RY*(  10) C  17                  0.00001     1.95478   
   285. RY*(  11) C  17                  0.00001     0.96740   
   286. RY*(  12) C  17                  0.00000     4.17196   
   287. RY*(  13) C  17                  0.00000     2.12285   
   288. RY*(  14) C  17                  0.00001     1.70865   
   289. RY*(   1) H  18                  0.00036     0.61557   
   290. RY*(   2) H  18                  0.00006     2.17277   
   291. RY*(   3) H  18                  0.00005     2.16868   
   292. RY*(   4) H  18                  0.00001     2.85816   
   293. RY*(   1) H  19                  0.00047     0.60145   
   294. RY*(   2) H  19                  0.00005     2.19923   
   295. RY*(   3) H  19                  0.00006     2.18208   
   296. RY*(   4) H  19                  0.00001     2.88782   
   297. RY*(   1) H  20                  0.00028     0.63950   
   298. RY*(   2) H  20                  0.00006     2.16447   
   299. RY*(   3) H  20                  0.00004     2.17956   
   300. RY*(   4) H  20                  0.00000     2.85422   
   301. RY*(   1) O  21                  0.00125     0.38348   
   302. RY*(   2) O  21                  0.00107     0.84988   
   303. RY*(   3) O  21                  0.00019     1.57566   
   304. RY*(   4) O  21                  0.00012     1.05817   
   305. RY*(   5) O  21                  0.00007     1.57407   
   306. RY*(   6) O  21                  0.00006     1.01000   
   307. RY*(   7) O  21                  0.00003     1.67403   
   308. RY*(   8) O  21                  0.00004     1.08885   
   309. RY*(   9) O  21                  0.00002     1.69300   
   310. RY*(  10) O  21                  0.00001     2.24958   
   311. RY*(  11) O  21                  0.00001     1.52232   
   312. RY*(  12) O  21                  0.00001     1.73309   
   313. RY*(  13) O  21                  0.00001     1.76266   
   314. RY*(  14) O  21                  0.00001     2.09859   
   319. RY*(   1) C  23                  0.00756     0.73858   
   320. RY*(   2) C  23                  0.00324     1.02533   
   321. RY*(   3) C  23                  0.00208     1.97886   
   322. RY*(   4) C  23                  0.00116     2.19044   
   323. RY*(   5) C  23                  0.00050     1.09023   
   324. RY*(   6) C  23                  0.00033     0.92292   
   325. RY*(   7) C  23                  0.00017     2.15270   
   326. RY*(   8) C  23                  0.00016     1.35221   
   327. RY*(   9) C  23                  0.00011     2.50581   
   328. RY*(  10) C  23                  0.00007     1.35623   
   329. RY*(  11) C  23                  0.00005     0.63282   
   330. RY*(  12) C  23                  0.00003     0.55688   
   331. RY*(  13) C  23                  0.00002     2.19466   
   332. RY*(   1) O  24                  0.00147     0.42572   
   333. RY*(   2) O  24                  0.00123     1.08209   
   334. RY*(   3) O  24                  0.00026     1.45500   
   335. RY*(   4) O  24                  0.00010     0.72965   
   336. RY*(   5) O  24                  0.00007     1.82290   
   337. RY*(   6) O  24                  0.00005     1.13038   
   338. RY*(   7) O  24                  0.00004     1.97252   
   339. RY*(   8) O  24                  0.00002     1.96452   
   340. RY*(   9) O  24                  0.00002     1.36343   
   341. RY*(  10) O  24                  0.00002     1.65702   
   342. RY*(  11) O  24                  0.00001     1.51584   
   343. RY*(  12) O  24                  0.00002     2.10318   
   344. RY*(  13) O  24                  0.00000     1.72902   
   345. RY*(  14) O  24                  0.00001     1.93729   
   346. RY*(   1) N  25                  0.00169     1.10588   
   347. RY*(   2) N  25                  0.00149     0.96338   
   348. RY*(   3) N  25                  0.00131     0.75033   
   349. RY*(   4) N  25                  0.00048     1.60019   
   350. RY*(   5) N  25                  0.00040     1.43114   
   351. RY*(   6) N  25                  0.00015     1.10018   
   352. RY*(   7) N  25                  0.00009     1.27550   
   353. RY*(   8) N  25                  0.00006     0.81127   
   354. RY*(   9) N  25                  0.00006     1.11746   
   355. RY*(  10) N  25                  0.00003     2.09766   
   356. RY*(  11) N  25                  0.00002     1.70921   
   357. RY*(  12) N  25                  0.00001     1.71537   
   358. RY*(  13) N  25                  0.00000     3.97479   
   359. RY*(  14) N  25                  0.00001     2.25964   
   360. RY*(   1) H  26                  0.00122     0.70515   
   361. RY*(   2) H  26                  0.00014     2.09282   
   362. RY*(   3) H  26                  0.00008     2.45014   
   363. RY*(   4) H  26                  0.00003     2.95000   
   364. RY*(   1) C  27                  0.00602     0.74632   
   365. RY*(   2) C  27                  0.00176     1.05334   
   366. RY*(   3) C  27                  0.00159     1.23758   
   367. RY*(   4) C  27                  0.00113     1.25287   
   368. RY*(   5) C  27                  0.00067     1.64311   
   369. RY*(   6) C  27                  0.00027     1.09012   
   370. RY*(   7) C  27                  0.00016     2.18286   
   371. RY*(   8) C  27                  0.00008     1.20358   
   372. RY*(   9) C  27                  0.00008     0.72144   
   373. RY*(  10) C  27                  0.00006     3.12126   
   374. RY*(  11) C  27                  0.00004     1.39829   
   375. RY*(  12) C  27                  0.00001     0.78598   
   376. RY*(  13) C  27                  0.00002     0.16287   
   377. RY*(  14) C  27                  0.00001     2.23532   
   378. RY*(   1) N  28                  0.00155     0.77078   
   379. RY*(   2) N  28                  0.00075     0.84473   
   380. RY*(   3) N  28                  0.00061     0.70444   
   381. RY*(   4) N  28                  0.00038     1.53063   
   382. RY*(   5) N  28                  0.00030     1.32752   
   383. RY*(   6) N  28                  0.00019     0.96483   
   384. RY*(   7) N  28                  0.00007     1.45160   
   385. RY*(   8) N  28                  0.00002     1.38789   
   386. RY*(   9) N  28                  0.00001     0.55445   
   387. RY*(  10) N  28                  0.00002     1.78989   
   388. RY*(  11) N  28                  0.00001     0.67731   
   389. RY*(  12) N  28                  0.00000     1.60924   
   390. RY*(  13) N  28                  0.00000     3.41699   
   391. RY*(  14) N  28                  0.00001     2.06617   
   392. RY*(   1) C  29                  0.00364     0.67405   
   393. RY*(   2) C  29                  0.00216     0.98206   
   394. RY*(   3) C  29                  0.00083     1.70682   
   395. RY*(   4) C  29                  0.00077     1.14107   
   396. RY*(   5) C  29                  0.00054     1.72463   
   397. RY*(   6) C  29                  0.00023     1.51652   
   398. RY*(   7) C  29                  0.00015     2.00576   
   399. RY*(   8) C  29                  0.00011     1.34270   
   400. RY*(   9) C  29                  0.00004     2.62043   
   401. RY*(  10) C  29                  0.00004     0.80940   
   402. RY*(  11) C  29                  0.00004     0.96896   
   403. RY*(  12) C  29                  0.00001     1.25711   
   404. RY*(  13) C  29                  0.00000     0.25965   
   405. RY*(  14) C  29                  0.00000     2.18202   
   406. RY*(   1) C  30                  0.00149     1.00228   
   407. RY*(   2) C  30                  0.00104     0.59657   
   408. RY*(   3) C  30                  0.00032     0.37876   
   409. RY*(   4) C  30                  0.00024     0.52679   
   410. RY*(   5) C  30                  0.00013     1.22075   
   411. RY*(   6) C  30                  0.00011     1.53318   
   412. RY*(   7) C  30                  0.00008     0.80274   
   413. RY*(   8) C  30                  0.00005     0.59136   
   414. RY*(   9) C  30                  0.00004     0.64063   
   415. RY*(  10) C  30                  0.00002     1.97816   
   416. RY*(  11) C  30                  0.00001     1.64677   
   417. RY*(  12) C  30                  0.00000     1.65609   
   418. RY*(  13) C  30                  0.00001     3.94063   
   419. RY*(  14) C  30                  0.00001     2.27210   
   420. RY*(   1) C  31                  0.00141     0.57085   
   421. RY*(   2) C  31                  0.00037     0.54708   
   422. RY*(   3) C  31                  0.00027     1.07765   
   423. RY*(   4) C  31                  0.00006     0.30146   
   424. RY*(   5) C  31                  0.00006     0.47788   
   425. RY*(   6) C  31                  0.00004     1.21920   
   426. RY*(   7) C  31                  0.00001     0.42704   
   427. RY*(   8) C  31                  0.00001     0.19144   
   428. RY*(   9) C  31                  0.00000     4.10929   
   429. RY*(  10) C  31                  0.00001     2.11269   
   430. RY*(  11) C  31                  0.00000     1.33912   
   431. RY*(  12) C  31                  0.00000     1.93675   
   432. RY*(  13) C  31                  0.00000     1.76491   
   433. RY*(  14) C  31                  0.00000     2.19869   
   434. RY*(   1) H  32                  0.00036     0.55553   
   435. RY*(   2) H  32                  0.00005     2.18761   
   436. RY*(   3) H  32                  0.00005     2.18175   
   437. RY*(   4) H  32                  0.00000     2.90923   
   438. RY*(   1) H  33                  0.00036     0.55681   
   439. RY*(   2) H  33                  0.00005     2.19128   
   440. RY*(   3) H  33                  0.00005     2.17727   
   441. RY*(   4) H  33                  0.00000     2.90959   
   442. RY*(   1) H  34                  0.00014     0.56183   
   443. RY*(   2) H  34                  0.00005     2.16626   
   444. RY*(   3) H  34                  0.00005     2.16902   
   445. RY*(   4) H  34                  0.00000     2.94580   
   446. RY*(   1) O  35                  0.00224     0.70417   
   447. RY*(   2) O  35                  0.00084     0.50649   
   448. RY*(   3) O  35                  0.00061     0.47275   
   449. RY*(   4) O  35                  0.00036     1.24208   
   450. RY*(   5) O  35                  0.00029     1.53712   
   451. RY*(   6) O  35                  0.00019     1.42743   
   452. RY*(   7) O  35                  0.00007     1.55338   
   453. RY*(   8) O  35                  0.00007     1.04034   
   454. RY*(   9) O  35                  0.00003     0.91289   
   455. RY*(  10) O  35                  0.00001     1.81888   
   456. RY*(  11) O  35                  0.00000     1.49082   
   457. RY*(  12) O  35                  0.00000     1.59593   
   458. RY*(  13) O  35                  0.00001     3.85028   
   459. RY*(  14) O  35                  0.00001     2.10683   
   460. RY*(   1) H  36                  0.00037     0.47275   
   461. RY*(   2) H  36                  0.00007     0.06069   
   462. RY*(   3) H  36                  0.00005     2.41001   
   463. RY*(   4) H  36                  0.00001     2.93950   
   464. BD*(   1) C   1 - C   2          0.01062     0.41748   
   465. BD*(   2) C   1 - C   2          0.13863    -0.12993  70(v),473(r),107(g),482(v)
                                                    484(v),98(g),95(g)
   466. BD*(   1) C   1 - C   6          0.01588     0.39534   
   467. BD*(   1) C   1 - S  13          0.10615     0.02739  220(g),477(v),469(v),219(g)
                                                    468(v),475(v),482(g),483(g)
                                                    94(g),226(g)
   468. BD*(   1) C   2 - C   3          0.00773     0.43108   
   469. BD*(   1) C   2 - H   7          0.00656     0.29044   
   470. BD*(   1) C   3 - C   4          0.00766     0.43179   
   471. BD*(   1) C   3 - H   8          0.00571     0.29437   
   472. BD*(   1) C   4 - C   5          0.00706     0.43395   
   473. BD*(   2) C   4 - C   5          0.10944    -0.11375  70(v),136(g),465(r),151(g)
   474. BD*(   1) C   4 - H   9          0.00581     0.29939   
   475. BD*(   1) C   5 - C   6          0.01123     0.41389   
   476. BD*(   1) C   5 - H  10          0.00621     0.28923   
   477. BD*(   1) C   6 - C  11          0.01784     0.30388   
   478. BD*(   1) C  11 - C  12          0.01622     0.42160   
   479. BD*(   1) C  11 - O  21          0.00855     0.20630   
   480. BD*(   1) C  12 - N  16          0.01530     0.20114   
   481. BD*(   1) C  12 - C  23          0.03084     0.31382   
   482. BD*(   1) S  13 - O  14          0.07312     0.15364   
   483. BD*(   1) S  13 - O  15          0.06988     0.14729   
   484. BD*(   1) S  13 - N  16          0.14156    -0.02828  220(g),219(g),485(g),226(g)
                                                    73(v),266(g),480(g),465(v)
                                                    223(g),482(g),483(g),486(v)
                                                    466(v)
   485. BD*(   1) N  16 - C  17          0.00791     0.15087   
   486. BD*(   1) C  17 - H  18          0.00431     0.26015   
   487. BD*(   1) C  17 - H  19          0.00764     0.25272   
   488. BD*(   1) C  17 - H  20          0.00367     0.28158   
   489. BD*(   1) C  23 - O  24          0.00702     0.38286   
   490. BD*(   2) C  23 - O  24          0.21860    -0.17439  494(v),73(v),321(g),332(g)
                                                    324(g),344(g),84(r)
   491. BD*(   1) C  23 - N  25          0.03351     0.30001   
   492. BD*(   1) N  25 - H  26          0.01165     0.24432   
   493. BD*(   1) N  25 - C  27          0.01662     0.27574   
   494. BD*(   2) N  25 - C  27          0.33129    -0.20795  490(v),88(v),499(v),366(g)
                                                    348(g),408(v),365(g),381(v)
                                                    380(v)
   495. BD*(   1) C  27 - N  28          0.00815     0.38193   
   496. BD*(   1) C  27 - C  30          0.01374     0.36825   
   497. BD*(   1) N  28 - O  35          0.01055     0.09760   
   498. BD*(   1) C  29 - C  30          0.01178     0.46990   
   499. BD*(   2) C  29 - C  30          0.11256    -0.10390  494(v),408(g),461(v),504(v)
                                                    503(v),414(g),399(g)
   500. BD*(   1) C  29 - C  31          0.00803     0.31393   
   501. BD*(   1) C  29 - O  35          0.02169     0.22798   
   502. BD*(   1) C  30 - H  36          0.00599     0.31143   
   503. BD*(   1) C  31 - H  32          0.00366     0.29831   
   504. BD*(   1) C  31 - H  33          0.00370     0.29987   
   505. BD*(   1) C  31 - H  34          0.00163     2.33973   
       -------------------------------
              Total Lewis   82.73637  ( 96.4457%)
        Valence non-Lewis    2.79045  (  3.2528%)
        Rydberg non-Lewis    0.25861  (  0.3015%)
       -------------------------------
            Total unit  1   85.78544  (100.0000%)
           Charge unit  1    0.71456
 
 Molecular unit  2  (H)
    84. LP*(   1) H  22                  0.21258     0.01498  315(g),304(r),313(r),318(g)
                                                    479(r),317(g),478(r),303(r)
                                                    489(r),314(r),319(r),191(r)
                                                    161(r),477(r),202(r),305(r)
                                                    491(r),338(r),306(r),200(r)
                                                    480(r),201(r),148(r),490(r)
                                                    466(r),476(r),187(r),309(r)
                                                    307(r),481(r),475(r),205(r)
                                                    345(r),311(r),115(r),152(r)
                                                    212(r),308(r),208(r),301(r)
                                                    322(r),154(r),207(r),472(r)
                                                    333(r),157(r)
   315. RY*(   1) H  22                  0.00160     0.94442   
   316. RY*(   2) H  22                  0.00018     2.30106   
   317. RY*(   3) H  22                  0.00011     2.72313   
   318. RY*(   4) H  22                  0.00006     2.93141   
       -------------------------------
              Total Lewis    0.00000  (  0.0000%)
        Valence non-Lewis    0.21258  ( 99.0950%)
        Rydberg non-Lewis    0.00194  (  0.9050%)
       -------------------------------
            Total unit  2    0.21453  (100.0000%)
           Charge unit  2    0.28547
 Unable to Open any file for archive entry.
 1\1\GINC-USER\SP\UM06\6-31+G(d,p)\C14H13N3O5S1(1+,2)\USER\25-May-2022\
 0\\# pop=nbo m06/6-31+g(d,p)\\Isoxicam\\1,2\C,0,-3.098007,-0.275499,-0
 .146862\C,0,-4.445792,-0.596026,-0.097961\C,0,-5.374198,0.427261,0.074
 677\C,0,-4.944761,1.747869,0.190277\C,0,-3.59025,2.05859,0.151763\C,0,
 -2.642744,1.044344,-0.006799\H,0,-4.754851,-1.63404,-0.193689\H,0,-6.4
 34546,0.192607,0.115283\H,0,-5.673486,2.544159,0.317463\H,0,-3.249437,
 3.085383,0.248983\C,0,-1.208229,1.349557,-0.016675\C,0,-0.257033,0.383
 07,0.184438\S,0,-1.886158,-1.539543,-0.464455\O,0,-1.462781,-1.448168,
 -1.848846\O,0,-2.350088,-2.792883,0.106895\N,0,-0.6161,-0.969118,0.489
 651\C,0,-0.725886,-1.270929,1.927933\H,0,0.227601,-1.008014,2.396092\H
 ,0,-1.528297,-0.690869,2.407316\H,0,-0.909014,-2.338376,2.0628\O,0,-0.
 910954,2.619516,-0.254694\H,0,0.079459,2.69914,-0.21389\C,0,1.162088,0
 .713207,0.0756\O,0,1.553129,1.884878,-0.047724\N,0,2.015069,-0.349066,
 0.122458\H,0,1.600571,-1.277117,0.126214\C,0,3.39782,-0.283988,0.04987
 7\N,0,4.062891,-1.418077,0.103036\C,0,5.490051,0.286626,-0.087228\C,0,
 4.249606,0.84527,-0.069912\C,0,6.854195,0.8464,-0.194389\H,0,7.456061,
 0.576813,0.680255\H,0,7.365954,0.457797,-1.081518\H,0,6.809122,1.93566
 4,-0.266041\O,0,5.394054,-1.050293,0.013703\H,0,3.968335,1.884452,-0.1
 37094\\Version=ES64L-G16RevC.01\State=2-A\HF=-1478.8604577\S2=0.766816
 \S2-1=0.\S2A=0.750172\RMSD=8.639e-09\Dipole=-0.3091405,2.0533722,1.393
 9155\Quadrupole=54.1905211,-25.9064988,-28.2840223,-0.8699562,-4.38792
 31,-2.8760701\PG=C01 [X(C14H13N3O5S1)]\\@
 The archive entry for this job was punched.


 This summer one third of the nation will be ill-housed
 ill-nourished and ill-clad. Only they call it a vacation.
 -- Jonas Salk
 Job cpu time:       0 days  3 hours 51 minutes 28.3 seconds.
 Elapsed time:       0 days  0 hours 42 minutes 36.8 seconds.
 File lengths (MBytes):  RWF=    240 Int=      0 D2E=      0 Chk=     19 Scr=      1
 Normal termination of Gaussian 16 at Wed May 25 14:43:09 2022.
