 Entering Gaussian System, Link 0=g16
 Input=/home/user/WorkIMPORTANT/Akshay/OXICAMS/M06/Isoxicam/Drug/Neutral/isoxicamM06.gjf
 Output=/home/user/WorkIMPORTANT/Akshay/OXICAMS/M06/Isoxicam/Drug/Neutral/isoxicamM06.log
 Initial command:
 /home/user/gaussian/g16/l1.exe "/home/user/gaussian/scratch/Gau-2439758.inp" -scrdir="/home/user/gaussian/scratch/"
 Entering Link 1 = /home/user/gaussian/g16/l1.exe PID=   2439761.
  
 Copyright (c) 1988-2019, Gaussian, Inc.  All Rights Reserved.
  
 This is part of the Gaussian(R) 16 program.  It is based on
 the Gaussian(R) 09 system (copyright 2009, Gaussian, Inc.),
 the Gaussian(R) 03 system (copyright 2003, Gaussian, Inc.),
 the Gaussian(R) 98 system (copyright 1998, Gaussian, Inc.),
 the Gaussian(R) 94 system (copyright 1995, Gaussian, Inc.),
 the Gaussian 92(TM) system (copyright 1992, Gaussian, Inc.),
 the Gaussian 90(TM) system (copyright 1990, Gaussian, Inc.),
 the Gaussian 88(TM) system (copyright 1988, Gaussian, Inc.),
 the Gaussian 86(TM) system (copyright 1986, Carnegie Mellon
 University), and the Gaussian 82(TM) system (copyright 1983,
 Carnegie Mellon University). Gaussian is a federally registered
 trademark of Gaussian, Inc.
  
 This software contains proprietary and confidential information,
 including trade secrets, belonging to Gaussian, Inc.
  
 This software is provided under written license and may be
 used, copied, transmitted, or stored only in accord with that
 written license.
  
 The following legend is applicable only to US Government
 contracts under FAR:
  
                    RESTRICTED RIGHTS LEGEND
  
 Use, reproduction and disclosure by the US Government is
 subject to restrictions as set forth in subparagraphs (a)
 and (c) of the Commercial Computer Software - Restricted
 Rights clause in FAR 52.227-19.
  
 Gaussian, Inc.
 340 Quinnipiac St., Bldg. 40, Wallingford CT 06492
  
  
 ---------------------------------------------------------------
 Warning -- This program may not be used in any manner that
 competes with the business of Gaussian, Inc. or will provide
 assistance to any competitor of Gaussian, Inc.  The licensee
 of this program is prohibited from giving any competitor of
 Gaussian, Inc. access to this program.  By using this program,
 the user acknowledges that Gaussian, Inc. is engaged in the
 business of creating and licensing software in the field of
 computational chemistry and represents and warrants to the
 licensee that it is not a competitor of Gaussian, Inc. and that
 it will not use this program in any manner prohibited above.
 ---------------------------------------------------------------
  

 Cite this work as:
 Gaussian 16, Revision C.01,
 M. J. Frisch, G. W. Trucks, H. B. Schlegel, G. E. Scuseria, 
 M. A. Robb, J. R. Cheeseman, G. Scalmani, V. Barone, 
 G. A. Petersson, H. Nakatsuji, X. Li, M. Caricato, A. V. Marenich, 
 J. Bloino, B. G. Janesko, R. Gomperts, B. Mennucci, H. P. Hratchian, 
 J. V. Ortiz, A. F. Izmaylov, J. L. Sonnenberg, D. Williams-Young, 
 F. Ding, F. Lipparini, F. Egidi, J. Goings, B. Peng, A. Petrone, 
 T. Henderson, D. Ranasinghe, V. G. Zakrzewski, J. Gao, N. Rega, 
 G. Zheng, W. Liang, M. Hada, M. Ehara, K. Toyota, R. Fukuda, 
 J. Hasegawa, M. Ishida, T. Nakajima, Y. Honda, O. Kitao, H. Nakai, 
 T. Vreven, K. Throssell, J. A. Montgomery, Jr., J. E. Peralta, 
 F. Ogliaro, M. J. Bearpark, J. J. Heyd, E. N. Brothers, K. N. Kudin, 
 V. N. Staroverov, T. A. Keith, R. Kobayashi, J. Normand, 
 K. Raghavachari, A. P. Rendell, J. C. Burant, S. S. Iyengar, 
 J. Tomasi, M. Cossi, J. M. Millam, M. Klene, C. Adamo, R. Cammi, 
 J. W. Ochterski, R. L. Martin, K. Morokuma, O. Farkas, 
 J. B. Foresman, and D. J. Fox, Gaussian, Inc., Wallingford CT, 2019.
 
 ******************************************
 Gaussian 16:  ES64L-G16RevC.01  3-Jul-2019
                25-May-2022 
 ******************************************
 %nprocshared=6
 Will use up to    6 processors via shared memory.
 -------------------------
 # pop=nbo m06/6-31+g(d,p)
 -------------------------
 1/38=1,172=1/1;
 2/12=2,17=6,18=5,40=1/2;
 3/5=1,6=6,7=111,11=2,25=1,30=1,74=-54/1,2,3;
 4//1;
 5/5=2,38=5/2;
 6/7=2,8=2,9=2,10=2,28=1,40=1/1,7;
 99/5=1,9=1/99;
 --------
 Isoxicam
 --------
 Symbolic Z-matrix:
 Charge =  0 Multiplicity = 1
 C                    -3.09801  -0.2755   -0.14686 
 C                    -4.44579  -0.59603  -0.09796 
 C                    -5.3742    0.42726   0.07468 
 C                    -4.94476   1.74787   0.19028 
 C                    -3.59025   2.05859   0.15176 
 C                    -2.64274   1.04434  -0.0068 
 H                    -4.75485  -1.63404  -0.19369 
 H                    -6.43455   0.19261   0.11528 
 H                    -5.67349   2.54416   0.31746 
 H                    -3.24944   3.08538   0.24898 
 C                    -1.20823   1.34956  -0.01668 
 C                    -0.25703   0.38307   0.18444 
 S                    -1.88616  -1.53954  -0.46446 
 O                    -1.46278  -1.44817  -1.84885 
 O                    -2.35009  -2.79288   0.1069 
 N                    -0.6161   -0.96912   0.48965 
 C                    -0.72589  -1.27093   1.92793 
 H                     0.2276   -1.00801   2.39609 
 H                    -1.5283   -0.69087   2.40732 
 H                    -0.90901  -2.33838   2.0628 
 O                    -0.91095   2.61952  -0.25469 
 H                     0.07946   2.69914  -0.21389 
 C                     1.16209   0.71321   0.0756 
 O                     1.55313   1.88488  -0.04772 
 N                     2.01507  -0.34907   0.12246 
 H                     1.60057  -1.27712   0.12621 
 C                     3.39782  -0.28399   0.04988 
 N                     4.06289  -1.41808   0.10304 
 C                     5.49005   0.28663  -0.08723 
 C                     4.24961   0.84527  -0.06991 
 C                     6.8542    0.8464   -0.19439 
 H                     7.45606   0.57681   0.68026 
 H                     7.36595   0.4578   -1.08152 
 H                     6.80912   1.93566  -0.26604 
 O                     5.39405  -1.05029   0.0137 
 H                     3.96834   1.88445  -0.13709 
 
                          Input orientation:                          
 ---------------------------------------------------------------------
 Center     Atomic      Atomic             Coordinates (Angstroms)
 Number     Number       Type             X           Y           Z
 ---------------------------------------------------------------------
      1          6           0       -3.098007   -0.275499   -0.146862
      2          6           0       -4.445792   -0.596026   -0.097961
      3          6           0       -5.374198    0.427261    0.074677
      4          6           0       -4.944761    1.747869    0.190277
      5          6           0       -3.590250    2.058590    0.151763
      6          6           0       -2.642744    1.044344   -0.006799
      7          1           0       -4.754851   -1.634040   -0.193689
      8          1           0       -6.434546    0.192607    0.115283
      9          1           0       -5.673486    2.544159    0.317463
     10          1           0       -3.249437    3.085383    0.248983
     11          6           0       -1.208229    1.349557   -0.016675
     12          6           0       -0.257033    0.383070    0.184438
     13         16           0       -1.886158   -1.539543   -0.464455
     14          8           0       -1.462781   -1.448168   -1.848846
     15          8           0       -2.350088   -2.792883    0.106895
     16          7           0       -0.616100   -0.969118    0.489651
     17          6           0       -0.725886   -1.270929    1.927933
     18          1           0        0.227601   -1.008014    2.396092
     19          1           0       -1.528297   -0.690869    2.407316
     20          1           0       -0.909014   -2.338376    2.062800
     21          8           0       -0.910954    2.619516   -0.254694
     22          1           0        0.079459    2.699140   -0.213890
     23          6           0        1.162088    0.713207    0.075600
     24          8           0        1.553129    1.884878   -0.047724
     25          7           0        2.015069   -0.349066    0.122458
     26          1           0        1.600571   -1.277117    0.126214
     27          6           0        3.397820   -0.283988    0.049877
     28          7           0        4.062891   -1.418077    0.103036
     29          6           0        5.490051    0.286626   -0.087228
     30          6           0        4.249606    0.845270   -0.069912
     31          6           0        6.854195    0.846400   -0.194389
     32          1           0        7.456061    0.576813    0.680255
     33          1           0        7.365954    0.457797   -1.081518
     34          1           0        6.809122    1.935664   -0.266041
     35          8           0        5.394054   -1.050293    0.013703
     36          1           0        3.968335    1.884452   -0.137094
 ---------------------------------------------------------------------
                    Distance matrix (angstroms):
                    1          2          3          4          5
     1  C    0.000000
     2  C    1.386237   0.000000
     3  C    2.392488   1.392429   0.000000
     4  C    2.760105   2.413689   1.393479   0.000000
     5  C    2.404049   2.800232   2.418604   1.390227   0.000000
     6  C    1.403163   2.439284   2.801477   2.415175   1.396998
     7  H    2.143119   1.087269   2.169003   3.408930   3.887306
     8  H    3.379399   2.150013   1.086761   2.154976   3.401947
     9  H    3.846968   3.397142   2.151691   1.086874   2.145485
    10  H    3.387499   3.886439   3.407434   2.160211   1.086236
    11  C    2.495800   3.778057   4.267818   3.763396   2.491008
    12  C    2.935065   4.310926   5.118533   4.882367   3.730787
    13  S    1.779677   2.752502   4.040471   4.537709   4.028674
    14  O    2.635501   3.562317   4.745140   5.147510   4.563542
    15  O    2.638370   3.043045   4.417647   5.230460   5.007675
    16  N    2.654453   3.892432   4.976100   5.119468   4.257552
    17  C    3.304938   4.289224   5.284431   5.470968   4.737622
    18  H    4.250043   5.313251   6.231303   6.262095   5.386748
    19  H    3.026607   3.846711   4.634908   4.747097   4.110802
    20  H    3.732259   4.495939   5.615982   6.040778   5.493123
    21  O    3.629868   4.781146   4.983474   4.150827   2.767395
    22  H    4.353075   5.599058   5.914988   5.129430   3.743096
    23  C    4.378977   5.761296   6.542538   6.194940   4.939694
    24  O    5.129339   6.491877   7.080077   6.503691   5.150177
    25  N    5.120692   6.469335   7.430090   7.269179   6.100596
    26  H    4.811907   6.088731   7.180178   7.210826   6.170269
    27  C    6.498811   7.851208   8.800840   8.587596   7.370968
    28  N    7.255783   8.550664   9.615858   9.548226   8.405959
    29  C    8.606642   9.974977  10.866365  10.540282   9.254666
    30  C    7.432998   8.814083   9.633963   9.242227   7.936285
    31  C   10.015350  11.392085  12.238532  11.839594  10.520250
    32  H   10.620683  11.984794  12.845413  12.465626  11.157775
    33  H   10.531182  11.899381  12.792544  12.443289  11.141002
    34  H   10.151584  11.537365  12.281069  11.764236  10.408487
    35  O    8.528844   9.850959  10.869321  10.712235   9.507993
    36  H    7.389091   8.772220   9.457863   8.920152   7.566107
                    6          7          8          9         10
     6  C    0.000000
     7  H    3.416089   0.000000
     8  H    3.888203   2.500696   0.000000
     9  H    3.397056   4.308424   2.479896   0.000000
    10  H    2.144607   4.973448   4.304759   2.484678   0.000000
    11  C    1.466658   4.638072   5.354469   4.634355   2.692619
    12  C    2.483037   4.943893   6.180835   5.833178   4.032511
    13  S    2.730997   2.882992   4.901456   5.624222   4.874163
    14  O    3.316333   3.689420   5.591815   6.193675   5.305291
    15  O    3.850050   2.686290   5.059251   6.290734   5.948364
    16  N    2.899617   4.247156   5.945088   6.160350   4.840595
    17  C    3.574636   4.567898   6.165747   6.451919   5.307037
    18  H    4.269068   5.650106   7.143373   7.194544   5.784096
    19  H    3.175044   4.250347   5.486823   5.658223   4.677692
    20  H    4.328031   4.514232   6.382022   7.041700   6.179375
    21  O    2.354085   5.733411   6.044571   4.797369   2.437053
    22  H    3.192433   6.492104   6.987369   5.779510   3.383044
    23  C    3.820103   6.371205   7.614555   7.080675   5.011869
    24  O    4.279430   7.224590   8.166597   7.265809   4.959222
    25  N    4.863489   6.898038   8.466963   8.217217   6.287008
    26  H    4.838656   6.373470   8.168434   8.218919   6.524497
    27  C    6.185151   8.267285   9.844127   9.505715   7.455088
    28  N    7.144307   8.825376  10.620294  10.513911   8.589097
    29  C    8.168412  10.423930  11.926687  11.396701   9.182850
    30  C    6.895513   9.340372  10.705670  10.074921   7.832972
    31  C    9.500854  11.871080  13.308418  12.652556  10.358234
    32  H   10.132941  12.440178  13.907400  13.281080  11.003936
    33  H   10.083308  12.331988  13.854835  13.279196  11.016395
    34  H    9.497338  12.102623  13.363323  12.511045  10.137145
    35  O    8.305302  10.167794  11.894154  11.640567   9.584837
    36  H    6.665518   9.406219  10.542579   9.675048   7.327177
                   11         12         13         14         15
    11  C    0.000000
    12  C    1.370882   0.000000
    13  S    3.001165   2.602220   0.000000
    14  O    3.353940   2.990235   1.450564   0.000000
    15  O    4.298712   3.804414   1.453456   2.533870   0.000000
    16  N    2.446066   1.431955   1.687824   2.532770   2.545454
    17  C    3.298652   2.448532   2.672434   3.852076   2.875857
    18  H    3.666223   2.657329   3.596280   4.590275   3.882095
    19  H    3.184574   2.776805   3.015855   4.323507   3.222691
    20  H    4.244360   3.370399   2.824883   4.049704   2.471606
    21  O    1.325829   2.371105   4.277008   4.403622   5.612122
    22  H    1.875742   2.374041   4.678981   4.717176   6.013977
    23  C    2.455984   1.461075   3.828622   3.907041   4.962764
    24  O    2.812940   2.363475   4.871244   4.842412   6.094297
    25  N    3.646139   2.387951   4.120834   4.146023   5.002707
    26  H    3.848271   2.492048   3.546130   3.648869   4.231504
    27  C    4.887595   3.717664   5.455399   5.346579   6.271862
    28  N    5.954732   4.681079   5.977289   5.860358   6.558689
    29  C    6.782459   5.754310   7.608262   7.379342   8.425487
    30  C    5.481341   4.537413   6.594740   6.407482   7.538128
    31  C    8.080064   7.136368   9.064184   8.784894   9.902221
    32  H    8.726555   7.731442   9.647092   9.489080  10.384804
    33  H    8.685951   7.727753   9.485342   9.064660  10.314103
    34  H    8.042613   7.248726   9.366127   9.076341  10.314522
    35  O    7.024980   5.832535   7.312283   7.116430   7.938327
    36  H    5.205519   4.495694   6.790140   6.597990   7.865079
                   16         17         18         19         20
    16  N    0.000000
    17  C    1.473702   0.000000
    18  H    2.085153   1.094274   0.000000
    19  H    2.141720   1.100064   1.784344   0.000000
    20  H    2.106054   1.091406   1.781247   1.793455   0.000000
    21  O    3.676858   4.464714   4.634862   4.292558   5.472794
    22  H    3.799327   4.582296   4.536182   4.576872   5.615778
    23  C    2.482662   3.306415   3.036536   3.827075   4.189342
    24  O    3.624861   4.365346   4.012242   4.707110   5.324691
    25  N    2.728066   3.409165   2.966255   4.229994   4.033924
    26  H    2.267285   2.942555   2.666423   3.916239   3.342851
    27  C    4.095651   4.637467   4.009891   5.476285   5.178918
    28  N    4.716354   5.126820   4.487283   6.090970   5.422865
    29  C    6.260572   6.717494   5.961237   7.512353   7.243017
    30  C    5.223046   5.764131   5.068763   6.471518   6.426151
    31  C    7.718117   8.151378   7.352632   8.910569   8.689368
    32  H    8.221071   8.480278   7.596473   9.236257   8.965726
    33  H    8.259409   8.804724   8.074556   9.622842   9.283341
    34  H    8.008917   8.477742   7.685611   9.141010   9.124721
    35  O    6.029516   6.416122   5.689446   7.333315   6.751787
    36  H    5.436241   6.021335   5.364372   6.581737   6.816182
                   21         22         23         24         25
    21  O    0.000000
    22  H    0.994446   0.000000
    23  C    2.835597   2.280311   0.000000
    24  O    2.579580   1.691844   1.241344   0.000000
    25  N    4.185252   3.626469   1.363157   2.287544   0.000000
    26  H    4.651516   4.270840   2.038681   3.167131   1.016416
    27  C    5.204674   4.469916   2.448174   2.848928   1.386183
    28  N    6.416328   5.737565   3.599692   4.151042   2.310138
    29  C    6.814931   5.925434   4.351982   4.249156   3.538866
    30  C    5.460171   4.565927   3.093765   2.890029   2.540984
    31  C    7.965244   7.023537   5.700063   5.403818   4.994664
    32  H    8.663354   7.727744   6.324421   6.089794   5.547322
    33  H    8.594409   7.672640   6.316020   6.074062   5.543695
    34  H    7.750313   6.773033   5.787928   5.260770   5.324835
    35  O    7.300182   6.508069   4.585117   4.834429   3.452693
    36  H    4.935748   3.974037   3.048291   2.416859   2.978459
                   26         27         28         29         30
    26  H    0.000000
    27  C    2.054808   0.000000
    28  N    2.466460   1.315790   0.000000
    29  C    4.197488   2.172977   2.231367   0.000000
    30  C    3.400056   1.419547   2.277611   1.360546   0.000000
    31  C    5.675621   3.644718   3.606618   1.478418   2.607562
    32  H    6.166910   4.196150   3.978237   2.130360   3.303963
    33  H    6.140699   4.192420   3.978982   2.130006   3.299259
    34  H    6.132278   4.082112   4.350354   2.119257   2.789005
    35  O    3.801923   2.138570   1.383922   1.344156   2.215832
    36  H    3.958681   2.250017   3.312597   2.207069   1.078669
                   31         32         33         34         35
    31  C    0.000000
    32  H    1.095409   0.000000
    33  H    1.095403   1.768086   0.000000
    34  H    1.092548   1.777775   1.777401   0.000000
    35  O    2.402657   2.709915   2.713344   3.316114   0.000000
    36  H    3.067413   3.813425   3.804089   2.844173   3.266212
                   36
    36  H    0.000000
 Stoichiometry    C14H13N3O5S
 Framework group  C1[X(C14H13N3O5S)]
 Deg. of freedom   102
 Full point group                 C1      NOp   1
 Largest Abelian subgroup         C1      NOp   1
 Largest concise Abelian subgroup C1      NOp   1
                         Standard orientation:                         
 ---------------------------------------------------------------------
 Center     Atomic      Atomic             Coordinates (Angstroms)
 Number     Number       Type             X           Y           Z
 ---------------------------------------------------------------------
      1          6           0       -3.098007   -0.275499   -0.146862
      2          6           0       -4.445792   -0.596026   -0.097961
      3          6           0       -5.374198    0.427261    0.074677
      4          6           0       -4.944761    1.747869    0.190277
      5          6           0       -3.590250    2.058590    0.151763
      6          6           0       -2.642744    1.044344   -0.006799
      7          1           0       -4.754851   -1.634040   -0.193689
      8          1           0       -6.434546    0.192607    0.115283
      9          1           0       -5.673486    2.544159    0.317463
     10          1           0       -3.249437    3.085383    0.248983
     11          6           0       -1.208229    1.349557   -0.016675
     12          6           0       -0.257033    0.383070    0.184438
     13         16           0       -1.886158   -1.539543   -0.464455
     14          8           0       -1.462781   -1.448168   -1.848846
     15          8           0       -2.350088   -2.792883    0.106895
     16          7           0       -0.616100   -0.969118    0.489651
     17          6           0       -0.725886   -1.270929    1.927933
     18          1           0        0.227601   -1.008014    2.396092
     19          1           0       -1.528297   -0.690869    2.407316
     20          1           0       -0.909014   -2.338376    2.062800
     21          8           0       -0.910954    2.619516   -0.254694
     22          1           0        0.079459    2.699140   -0.213890
     23          6           0        1.162088    0.713207    0.075600
     24          8           0        1.553129    1.884878   -0.047724
     25          7           0        2.015069   -0.349066    0.122458
     26          1           0        1.600571   -1.277117    0.126214
     27          6           0        3.397820   -0.283988    0.049877
     28          7           0        4.062891   -1.418077    0.103036
     29          6           0        5.490051    0.286626   -0.087228
     30          6           0        4.249606    0.845270   -0.069912
     31          6           0        6.854195    0.846400   -0.194389
     32          1           0        7.456061    0.576813    0.680255
     33          1           0        7.365954    0.457797   -1.081518
     34          1           0        6.809122    1.935664   -0.266041
     35          8           0        5.394054   -1.050293    0.013703
     36          1           0        3.968335    1.884452   -0.137094
 ---------------------------------------------------------------------
 Rotational constants (GHZ):           0.6229296           0.1258089           0.1106776
 Standard basis: 6-31+G(d,p) (6D, 7F)
 There are   506 symmetry adapted cartesian basis functions of A   symmetry.
 There are   506 symmetry adapted basis functions of A   symmetry.
   506 basis functions,   851 primitive gaussians,   506 cartesian basis functions
    87 alpha electrons       87 beta electrons
       nuclear repulsion energy      2131.5767144751 Hartrees.
 NAtoms=   36 NActive=   36 NUniq=   36 SFac= 1.00D+00 NAtFMM=   60 NAOKFM=F Big=F
 Integral buffers will be    131072 words long.
 Raffenetti 2 integral format.
 Two-electron integral symmetry is turned on.
 One-electron integrals computed using PRISM.
 NBasis=   506 RedAO= T EigKep=  1.53D-06  NBF=   506
 NBsUse=   503 1.00D-06 EigRej=  7.08D-07 NBFU=   503
 ExpMin= 4.05D-02 ExpMax= 2.19D+04 ExpMxC= 3.30D+03 IAcc=3 IRadAn=         5 AccDes= 0.00D+00
 Harris functional with IExCor= 1009 and IRadAn=       5 diagonalized for initial guess.
 HarFok:  IExCor= 1009 AccDes= 0.00D+00 IRadAn=         5 IDoV= 1 UseB2=F ITyADJ=14
 ICtDFT=  3500011 ScaDFX=  1.000000  1.000000  1.000000  1.000000
 FoFCou: FMM=F IPFlag=           0 FMFlag=      100000 FMFlg1=           0
         NFxFlg=           0 DoJE=T BraDBF=F KetDBF=T FulRan=T
         wScrn=  0.000000 ICntrl=       500 IOpCl=  0 I1Cent=   200000004 NGrid=           0
         NMat0=    1 NMatS0=      1 NMatT0=    0 NMatD0=    1 NMtDS0=    0 NMtDT0=    0
 Petite list used in FoFCou.
 Requested convergence on RMS density matrix=1.00D-08 within 128 cycles.
 Requested convergence on MAX density matrix=1.00D-06.
 Requested convergence on             energy=1.00D-06.
 No special actions if energy rises.
 SCF Done:  E(RM06) =  -1479.16849552     A.U. after   16 cycles
            NFock= 16  Conv=0.64D-08     -V/T= 2.0084

 **********************************************************************

            Population analysis using the SCF Density.

 **********************************************************************

 Orbital symmetries:
       Occupied  (A) (A) (A) (A) (A) (A) (A) (A) (A) (A) (A) (A)
                 (A) (A) (A) (A) (A) (A) (A) (A) (A) (A) (A) (A)
                 (A) (A) (A) (A) (A) (A) (A) (A) (A) (A) (A) (A)
                 (A) (A) (A) (A) (A) (A) (A) (A) (A) (A) (A) (A)
                 (A) (A) (A) (A) (A) (A) (A) (A) (A) (A) (A) (A)
                 (A) (A) (A) (A) (A) (A) (A) (A) (A) (A) (A) (A)
                 (A) (A) (A) (A) (A) (A) (A) (A) (A) (A) (A) (A)
                 (A) (A) (A)
       Virtual   (A) (A) (A) (A) (A) (A) (A) (A) (A) (A) (A) (A)
                 (A) (A) (A) (A) (A) (A) (A) (A) (A) (A) (A) (A)
                 (A) (A) (A) (A) (A) (A) (A) (A) (A) (A) (A) (A)
                 (A) (A) (A) (A) (A) (A) (A) (A) (A) (A) (A) (A)
                 (A) (A) (A) (A) (A) (A) (A) (A) (A) (A) (A) (A)
                 (A) (A) (A) (A) (A) (A) (A) (A) (A) (A) (A) (A)
                 (A) (A) (A) (A) (A) (A) (A) (A) (A) (A) (A) (A)
                 (A) (A) (A) (A) (A) (A) (A) (A) (A) (A) (A) (A)
                 (A) (A) (A) (A) (A) (A) (A) (A) (A) (A) (A) (A)
                 (A) (A) (A) (A) (A) (A) (A) (A) (A) (A) (A) (A)
                 (A) (A) (A) (A) (A) (A) (A) (A) (A) (A) (A) (A)
                 (A) (A) (A) (A) (A) (A) (A) (A) (A) (A) (A) (A)
                 (A) (A) (A) (A) (A) (A) (A) (A) (A) (A) (A) (A)
                 (A) (A) (A) (A) (A) (A) (A) (A) (A) (A) (A) (A)
                 (A) (A) (A) (A) (A) (A) (A) (A) (A) (A) (A) (A)
                 (A) (A) (A) (A) (A) (A) (A) (A) (A) (A) (A) (A)
                 (A) (A) (A) (A) (A) (A) (A) (A) (A) (A) (A) (A)
                 (A) (A) (A) (A) (A) (A) (A) (A) (A) (A) (A) (A)
                 (A) (A) (A) (A) (A) (A) (A) (A) (A) (A) (A) (A)
                 (A) (A) (A) (A) (A) (A) (A) (A) (A) (A) (A) (A)
                 (A) (A) (A) (A) (A) (A) (A) (A) (A) (A) (A) (A)
                 (A) (A) (A) (A) (A) (A) (A) (A) (A) (A) (A) (A)
                 (A) (A) (A) (A) (A) (A) (A) (A) (A) (A) (A) (A)
                 (A) (A) (A) (A) (A) (A) (A) (A) (A) (A) (A) (A)
                 (A) (A) (A) (A) (A) (A) (A) (A) (A) (A) (A) (A)
                 (A) (A) (A) (A) (A) (A) (A) (A) (A) (A) (A) (A)
                 (A) (A) (A) (A) (A) (A) (A) (A) (A) (A) (A) (A)
                 (A) (A) (A) (A) (A) (A) (A) (A) (A) (A) (A) (A)
                 (A) (A) (A) (A) (A) (A) (A) (A) (A) (A) (A) (A)
                 (A) (A) (A) (A) (A) (A) (A) (A) (A) (A) (A) (A)
                 (A) (A) (A) (A) (A) (A) (A) (A) (A) (A) (A) (A)
                 (A) (A) (A) (A) (A) (A) (A) (A) (A) (A) (A) (A)
                 (A) (A) (A) (A) (A) (A) (A) (A) (A) (A) (A) (A)
                 (A) (A) (A) (A) (A) (A) (A) (A) (A) (A) (A) (A)
                 (A) (A) (A) (A) (A) (A) (A) (A)
 The electronic state is 1-A.
 Alpha  occ. eigenvalues --  -89.31142 -19.33457 -19.29587 -19.25797 -19.25409
 Alpha  occ. eigenvalues --  -19.24504 -14.47815 -14.47774 -14.46450 -10.40205
 Alpha  occ. eigenvalues --  -10.37849 -10.34773 -10.34494 -10.32477 -10.32115
 Alpha  occ. eigenvalues --  -10.32033 -10.31287 -10.30773 -10.30503 -10.30407
 Alpha  occ. eigenvalues --  -10.30335 -10.28122 -10.27107  -8.27757  -6.19575
 Alpha  occ. eigenvalues --   -6.19480  -6.19374  -1.18239  -1.16613  -1.13238
 Alpha  occ. eigenvalues --   -1.09343  -1.05781  -1.00205  -0.98580  -0.91976
 Alpha  occ. eigenvalues --   -0.88448  -0.83635  -0.83355  -0.81612  -0.79621
 Alpha  occ. eigenvalues --   -0.74744  -0.74718  -0.71803  -0.68678  -0.67530
 Alpha  occ. eigenvalues --   -0.64906  -0.63151  -0.61297  -0.60874  -0.59038
 Alpha  occ. eigenvalues --   -0.57063  -0.54100  -0.53787  -0.52815  -0.52495
 Alpha  occ. eigenvalues --   -0.51177  -0.50452  -0.50061  -0.49233  -0.48702
 Alpha  occ. eigenvalues --   -0.48097  -0.47872  -0.47208  -0.46211  -0.45246
 Alpha  occ. eigenvalues --   -0.44212  -0.43917  -0.43531  -0.42851  -0.42529
 Alpha  occ. eigenvalues --   -0.41830  -0.41355  -0.40597  -0.40097  -0.37913
 Alpha  occ. eigenvalues --   -0.37370  -0.36507  -0.35635  -0.34116  -0.33423
 Alpha  occ. eigenvalues --   -0.32919  -0.31530  -0.30490  -0.29687  -0.28959
 Alpha  occ. eigenvalues --   -0.27585  -0.26208
 Alpha virt. eigenvalues --   -0.08972  -0.05148  -0.03299  -0.02643  -0.02328
 Alpha virt. eigenvalues --   -0.02065  -0.01930  -0.00985  -0.00676  -0.00326
 Alpha virt. eigenvalues --   -0.00163   0.00516   0.00880   0.01196   0.01322
 Alpha virt. eigenvalues --    0.01391   0.02006   0.02549   0.03039   0.03368
 Alpha virt. eigenvalues --    0.04181   0.04430   0.04718   0.04957   0.05336
 Alpha virt. eigenvalues --    0.05497   0.05734   0.06131   0.06230   0.07007
 Alpha virt. eigenvalues --    0.07143   0.07551   0.07974   0.08414   0.08718
 Alpha virt. eigenvalues --    0.08869   0.09200   0.09473   0.09921   0.10414
 Alpha virt. eigenvalues --    0.10486   0.11263   0.11434   0.11530   0.12330
 Alpha virt. eigenvalues --    0.12540   0.12927   0.13448   0.13751   0.13948
 Alpha virt. eigenvalues --    0.14193   0.14593   0.14756   0.15010   0.15525
 Alpha virt. eigenvalues --    0.16171   0.16377   0.16569   0.16899   0.17267
 Alpha virt. eigenvalues --    0.17699   0.18106   0.18446   0.19081   0.19280
 Alpha virt. eigenvalues --    0.19717   0.19752   0.19777   0.20238   0.20767
 Alpha virt. eigenvalues --    0.21025   0.21175   0.21351   0.21982   0.22198
 Alpha virt. eigenvalues --    0.22806   0.23156   0.23679   0.23779   0.24253
 Alpha virt. eigenvalues --    0.24791   0.24884   0.25179   0.25394   0.25464
 Alpha virt. eigenvalues --    0.26057   0.26208   0.26508   0.27180   0.27386
 Alpha virt. eigenvalues --    0.27523   0.28467   0.28522   0.28858   0.29094
 Alpha virt. eigenvalues --    0.29580   0.29877   0.30043   0.30461   0.30572
 Alpha virt. eigenvalues --    0.31332   0.31658   0.32151   0.32543   0.32878
 Alpha virt. eigenvalues --    0.33178   0.33403   0.33477   0.34541   0.34883
 Alpha virt. eigenvalues --    0.35334   0.35740   0.36297   0.37140   0.37805
 Alpha virt. eigenvalues --    0.38119   0.39015   0.39331   0.40091   0.40724
 Alpha virt. eigenvalues --    0.41706   0.42748   0.42976   0.46932   0.47308
 Alpha virt. eigenvalues --    0.48342   0.48765   0.50198   0.51192   0.52186
 Alpha virt. eigenvalues --    0.53516   0.54323   0.55179   0.57427   0.59463
 Alpha virt. eigenvalues --    0.60723   0.62572   0.62717   0.63259   0.64492
 Alpha virt. eigenvalues --    0.64829   0.65557   0.65735   0.66903   0.68572
 Alpha virt. eigenvalues --    0.69263   0.69934   0.70249   0.70905   0.71043
 Alpha virt. eigenvalues --    0.71297   0.71840   0.72049   0.72905   0.73802
 Alpha virt. eigenvalues --    0.74565   0.74899   0.76007   0.76739   0.78049
 Alpha virt. eigenvalues --    0.79415   0.80628   0.82135   0.82519   0.84005
 Alpha virt. eigenvalues --    0.84797   0.85205   0.87052   0.87546   0.88214
 Alpha virt. eigenvalues --    0.88428   0.89150   0.90281   0.91396   0.92263
 Alpha virt. eigenvalues --    0.92907   0.93531   0.94566   0.95413   0.95561
 Alpha virt. eigenvalues --    0.96482   0.97181   0.98403   0.98651   0.99592
 Alpha virt. eigenvalues --    1.00446   1.02533   1.02647   1.03722   1.04454
 Alpha virt. eigenvalues --    1.04955   1.07529   1.07957   1.09076   1.09919
 Alpha virt. eigenvalues --    1.10402   1.11280   1.11969   1.12352   1.13330
 Alpha virt. eigenvalues --    1.15451   1.16339   1.17174   1.17492   1.18621
 Alpha virt. eigenvalues --    1.18902   1.21022   1.21258   1.22396   1.23337
 Alpha virt. eigenvalues --    1.24034   1.24417   1.25114   1.26355   1.27008
 Alpha virt. eigenvalues --    1.28320   1.29242   1.30175   1.30224   1.30822
 Alpha virt. eigenvalues --    1.31981   1.32701   1.32979   1.33247   1.33965
 Alpha virt. eigenvalues --    1.34574   1.35219   1.35326   1.37164   1.37390
 Alpha virt. eigenvalues --    1.37880   1.38960   1.39548   1.40671   1.41411
 Alpha virt. eigenvalues --    1.42659   1.43258   1.44789   1.46094   1.47067
 Alpha virt. eigenvalues --    1.47867   1.49927   1.50568   1.50647   1.51302
 Alpha virt. eigenvalues --    1.53144   1.55288   1.55545   1.57326   1.61041
 Alpha virt. eigenvalues --    1.62017   1.64279   1.66617   1.67687   1.68183
 Alpha virt. eigenvalues --    1.68541   1.69850   1.71287   1.73123   1.74133
 Alpha virt. eigenvalues --    1.75855   1.76865   1.78788   1.79806   1.80765
 Alpha virt. eigenvalues --    1.81482   1.82102   1.83040   1.83652   1.84669
 Alpha virt. eigenvalues --    1.85902   1.86016   1.87524   1.88201   1.88693
 Alpha virt. eigenvalues --    1.89009   1.89914   1.90236   1.91475   1.92008
 Alpha virt. eigenvalues --    1.92267   1.93851   1.94177   1.95034   1.95914
 Alpha virt. eigenvalues --    1.97743   1.98057   1.98858   2.00394   2.01363
 Alpha virt. eigenvalues --    2.01740   2.02709   2.02859   2.03364   2.03859
 Alpha virt. eigenvalues --    2.04467   2.05464   2.06972   2.08484   2.10281
 Alpha virt. eigenvalues --    2.11091   2.11495   2.12890   2.13810   2.14462
 Alpha virt. eigenvalues --    2.16131   2.18128   2.19280   2.21267   2.23482
 Alpha virt. eigenvalues --    2.24314   2.26554   2.27211   2.28828   2.30194
 Alpha virt. eigenvalues --    2.30701   2.31140   2.31819   2.33235   2.33662
 Alpha virt. eigenvalues --    2.35232   2.36345   2.37052   2.37408   2.41171
 Alpha virt. eigenvalues --    2.42394   2.43608   2.45037   2.45263   2.46363
 Alpha virt. eigenvalues --    2.48028   2.48283   2.50128   2.51031   2.52240
 Alpha virt. eigenvalues --    2.52721   2.53134   2.54834   2.56174   2.57186
 Alpha virt. eigenvalues --    2.58048   2.58627   2.59750   2.60017   2.60415
 Alpha virt. eigenvalues --    2.62803   2.65576   2.66308   2.67053   2.68065
 Alpha virt. eigenvalues --    2.70171   2.71198   2.73209   2.74798   2.75188
 Alpha virt. eigenvalues --    2.77890   2.78558   2.80829   2.83241   2.85867
 Alpha virt. eigenvalues --    2.86379   2.88468   2.91094   2.92163   2.93380
 Alpha virt. eigenvalues --    2.95134   2.97464   2.97936   2.99592   3.00298
 Alpha virt. eigenvalues --    3.03948   3.07239   3.10353   3.13797   3.15634
 Alpha virt. eigenvalues --    3.16871   3.20868   3.21938   3.23881   3.25333
 Alpha virt. eigenvalues --    3.26510   3.29077   3.32397   3.36838   3.37659
 Alpha virt. eigenvalues --    3.39672   3.40870   3.42544   3.43615   3.55035
 Alpha virt. eigenvalues --    3.62886   3.64960   3.74328   3.96805   4.17168
 Alpha virt. eigenvalues --    4.23129   4.26867   4.28368   4.31359   4.32682
 Alpha virt. eigenvalues --    4.33864   4.37252   4.38236   4.42613   4.44532
 Alpha virt. eigenvalues --    4.46847   4.49647   4.50308   4.56438   4.59477
 Alpha virt. eigenvalues --    4.64127   4.67976   4.73954   4.78235   4.85482
 Alpha virt. eigenvalues --    4.89382
          Condensed to atoms (all electrons):
               1          2          3          4          5          6
     1  C   23.948227  -6.193061   0.576913  -0.308820   0.158516  -5.469590
     2  C   -6.193061  13.513515  -0.775278  -1.376867   3.195426  -3.536596
     3  C    0.576913  -0.775278   8.459796   0.185434  -0.200315  -1.915288
     4  C   -0.308820  -1.376867   0.185434   9.688791  -3.836533   3.198512
     5  C    0.158516   3.195426  -0.200315  -3.836533  15.325128  -9.140114
     6  C   -5.469590  -3.536596  -1.915288   3.198512  -9.140114  32.008753
     7  H    0.049790   0.261586   0.021972   0.004091  -0.017405  -0.074477
     8  H    0.047295   0.007880   0.216333   0.056988   0.011943  -0.016248
     9  H   -0.021804   0.007769   0.068662   0.201424   0.012484   0.061712
    10  H    0.003353  -0.025354   0.010230  -0.073864   0.284426  -0.106025
    11  C   -1.981727  -2.185358  -0.562683   0.681701  -2.545979   9.530186
    12  C    0.419441   0.616365  -0.098478  -2.007417   1.784057 -13.004967
    13  S   -1.947724   1.549049   0.096878  -0.405270   0.874491  -2.497138
    14  O    0.098276  -0.050687  -0.010120   0.004238  -0.003406  -0.034077
    15  O   -0.102856   0.079534   0.139904  -0.022291   0.038982  -0.473926
    16  N   -1.053971   0.234865  -0.143544   0.215813  -0.117575   1.665974
    17  C   -0.037972   0.115790   0.064756   0.033938  -0.071581   0.341531
    18  H    0.005230  -0.002488   0.000334  -0.002399  -0.002333  -0.079737
    19  H   -0.006936  -0.015330  -0.005143   0.013801  -0.010473   0.152169
    20  H    0.014759  -0.001005   0.000822   0.000172  -0.000252  -0.005599
    21  O   -0.170538   0.019260  -0.010006   0.038056   0.092954  -0.676705
    22  H    0.017720   0.002348  -0.000056  -0.006059  -0.007659   0.109880
    23  C   -0.511380   0.278801  -0.135840  -0.289263   0.236387  -4.302080
    24  O    0.002811  -0.004438   0.000502   0.001263  -0.007395   0.073267
    25  N   -0.119442  -0.033231  -0.010117   0.006376   0.022314  -0.188978
    26  H   -0.003852  -0.001444  -0.000231   0.000095  -0.000115   0.007376
    27  C   -0.097001  -0.022872  -0.008497   0.001396   0.016796  -0.344691
    28  N   -0.002004  -0.000343  -0.000025   0.000112   0.001191   0.000452
    29  C   -0.010954   0.000368  -0.000068   0.000264   0.005534  -0.013623
    30  C   -0.009355   0.002730  -0.000925  -0.001006   0.002042  -0.055877
    31  C   -0.000862  -0.000010  -0.000002   0.000019   0.000400  -0.002584
    32  H    0.000000   0.000000   0.000000  -0.000000  -0.000000  -0.000001
    33  H   -0.000000  -0.000000  -0.000000   0.000000   0.000000   0.000000
    34  H   -0.000000   0.000000  -0.000000  -0.000000  -0.000000   0.000002
    35  O    0.000156   0.000036   0.000001  -0.000003  -0.000084   0.000722
    36  H    0.000078  -0.000007   0.000001  -0.000004  -0.000128  -0.000020
               7          8          9         10         11         12
     1  C    0.049790   0.047295  -0.021804   0.003353  -1.981727   0.419441
     2  C    0.261586   0.007880   0.007769  -0.025354  -2.185358   0.616365
     3  C    0.021972   0.216333   0.068662   0.010230  -0.562683  -0.098478
     4  C    0.004091   0.056988   0.201424  -0.073864   0.681701  -2.007417
     5  C   -0.017405   0.011943   0.012484   0.284426  -2.545979   1.784057
     6  C   -0.074477  -0.016248   0.061712  -0.106025   9.530186 -13.004967
     7  H    0.499263  -0.004427  -0.000136   0.000014   0.003962  -0.005214
     8  H   -0.004427   0.523992  -0.004776  -0.000142  -0.001486   0.000884
     9  H   -0.000136  -0.004776   0.526315  -0.004570  -0.012340   0.000775
    10  H    0.000014  -0.000142  -0.004570   0.515844   0.134461   0.066335
    11  C    0.003962  -0.001486  -0.012340   0.134461  24.885009 -11.028031
    12  C   -0.005214   0.000884   0.000775   0.066335 -11.028031  26.452475
    13  S    0.074495  -0.004123  -0.000120   0.003041  -1.688536  -0.193011
    14  O   -0.001181  -0.000001   0.000002  -0.000000   0.015248  -0.203188
    15  O    0.001365   0.000140  -0.000001   0.000015  -0.182306   0.413489
    16  N   -0.000633  -0.000045  -0.000017   0.000051   1.350998  -3.723516
    17  C   -0.001334  -0.000018  -0.000003   0.000150   0.208103  -1.353594
    18  H    0.000000   0.000000   0.000000   0.000000  -0.180851   0.071184
    19  H   -0.000003  -0.000000  -0.000000  -0.000007   0.119019  -0.120115
    20  H    0.000001   0.000000  -0.000000  -0.000000   0.020055   0.018496
    21  O    0.000007   0.000004   0.000190  -0.003300  -0.048214   0.473499
    22  H   -0.000000   0.000000  -0.000000   0.000001   0.158623  -0.201159
    23  C   -0.000505  -0.000059  -0.000168   0.015469  -8.040210   7.776089
    24  O   -0.000000   0.000000   0.000000  -0.000137  -0.029175  -0.214971
    25  N   -0.000037  -0.000000   0.000000  -0.000022  -0.462578   0.271556
    26  H   -0.000000  -0.000000   0.000000   0.000000   0.022833  -0.003803
    27  C    0.000018   0.000000  -0.000000   0.000088  -1.438613   0.332216
    28  N   -0.000000  -0.000000   0.000000  -0.000000   0.012058  -0.071329
    29  C    0.000000   0.000000  -0.000000   0.000001  -0.067922  -0.231214
    30  C   -0.000000  -0.000000  -0.000000  -0.000002  -0.513259   0.176945
    31  C    0.000000   0.000000  -0.000000   0.000000  -0.019008  -0.036221
    32  H    0.000000   0.000000   0.000000   0.000000  -0.000042  -0.000114
    33  H    0.000000   0.000000   0.000000  -0.000000   0.000038  -0.000033
    34  H   -0.000000   0.000000  -0.000000   0.000000  -0.000014   0.000189
    35  O    0.000000   0.000000  -0.000000   0.000000   0.003147   0.019424
    36  H    0.000000   0.000000  -0.000000  -0.000000   0.000523  -0.002240
              13         14         15         16         17         18
     1  C   -1.947724   0.098276  -0.102856  -1.053971  -0.037972   0.005230
     2  C    1.549049  -0.050687   0.079534   0.234865   0.115790  -0.002488
     3  C    0.096878  -0.010120   0.139904  -0.143544   0.064756   0.000334
     4  C   -0.405270   0.004238  -0.022291   0.215813   0.033938  -0.002399
     5  C    0.874491  -0.003406   0.038982  -0.117575  -0.071581  -0.002333
     6  C   -2.497138  -0.034077  -0.473926   1.665974   0.341531  -0.079737
     7  H    0.074495  -0.001181   0.001365  -0.000633  -0.001334   0.000000
     8  H   -0.004123  -0.000001   0.000140  -0.000045  -0.000018   0.000000
     9  H   -0.000120   0.000002  -0.000001  -0.000017  -0.000003   0.000000
    10  H    0.003041  -0.000000   0.000015   0.000051   0.000150   0.000000
    11  C   -1.688536   0.015248  -0.182306   1.350998   0.208103  -0.180851
    12  C   -0.193011  -0.203188   0.413489  -3.723516  -1.353594   0.071184
    13  S   17.679958   0.463339   0.547865   0.058838   0.123781   0.051753
    14  O    0.463339   8.408565  -0.210908   0.001557   0.068249  -0.000187
    15  O    0.547865  -0.210908   8.622083  -0.284480  -0.118471   0.001261
    16  N    0.058838   0.001557  -0.284480  10.767634   0.506979  -0.029346
    17  C    0.123781   0.068249  -0.118471   0.506979   5.568723   0.384764
    18  H    0.051753  -0.000187   0.001261  -0.029346   0.384764   0.530156
    19  H   -0.093620  -0.001560  -0.000823  -0.029773   0.398582  -0.031262
    20  H   -0.001838   0.000499  -0.001604  -0.085826   0.415463  -0.018389
    21  O    0.019467  -0.000254  -0.000664   0.008093  -0.003873   0.000702
    22  H    0.000917  -0.000038   0.000019  -0.001131  -0.000933  -0.000006
    23  C    0.153463  -0.065641   0.045115  -1.100359  -0.265186   0.089217
    24  O   -0.008182   0.000628   0.000217   0.025731   0.011069  -0.001467
    25  N   -0.054084  -0.028348   0.001370  -0.265376  -0.113328   0.009532
    26  H   -0.005797  -0.000315  -0.000251   0.009396  -0.007841  -0.000926
    27  C   -0.045468  -0.033439   0.005393  -0.350103  -0.115182   0.033708
    28  N   -0.001656   0.000142  -0.000151  -0.007921  -0.005114  -0.000304
    29  C    0.019865   0.000381  -0.000379   0.057261   0.015033   0.000919
    30  C   -0.023990  -0.003069   0.000579  -0.071949  -0.032826  -0.001906
    31  C    0.001191   0.000051  -0.000011   0.005462   0.001625  -0.000006
    32  H    0.000000   0.000000  -0.000000   0.000001   0.000001   0.000000
    33  H   -0.000000   0.000000  -0.000000  -0.000000  -0.000001   0.000000
    34  H    0.000000  -0.000000   0.000000  -0.000001   0.000001  -0.000000
    35  O    0.000364  -0.000021   0.000001  -0.000728  -0.000256   0.000028
    36  H    0.000027  -0.000001   0.000000   0.000118  -0.000043   0.000000
              19         20         21         22         23         24
     1  C   -0.006936   0.014759  -0.170538   0.017720  -0.511380   0.002811
     2  C   -0.015330  -0.001005   0.019260   0.002348   0.278801  -0.004438
     3  C   -0.005143   0.000822  -0.010006  -0.000056  -0.135840   0.000502
     4  C    0.013801   0.000172   0.038056  -0.006059  -0.289263   0.001263
     5  C   -0.010473  -0.000252   0.092954  -0.007659   0.236387  -0.007395
     6  C    0.152169  -0.005599  -0.676705   0.109880  -4.302080   0.073267
     7  H   -0.000003   0.000001   0.000007  -0.000000  -0.000505  -0.000000
     8  H   -0.000000   0.000000   0.000004   0.000000  -0.000059   0.000000
     9  H   -0.000000  -0.000000   0.000190  -0.000000  -0.000168   0.000000
    10  H   -0.000007  -0.000000  -0.003300   0.000001   0.015469  -0.000137
    11  C    0.119019   0.020055  -0.048214   0.158623  -8.040210  -0.029175
    12  C   -0.120115   0.018496   0.473499  -0.201159   7.776089  -0.214971
    13  S   -0.093620  -0.001838   0.019467   0.000917   0.153463  -0.008182
    14  O   -0.001560   0.000499  -0.000254  -0.000038  -0.065641   0.000628
    15  O   -0.000823  -0.001604  -0.000664   0.000019   0.045115   0.000217
    16  N   -0.029773  -0.085826   0.008093  -0.001131  -1.100359   0.025731
    17  C    0.398582   0.415463  -0.003873  -0.000933  -0.265186   0.011069
    18  H   -0.031262  -0.018389   0.000702  -0.000006   0.089217  -0.001467
    19  H    0.533840  -0.027902  -0.000995   0.000003  -0.040682   0.000399
    20  H   -0.027902   0.485330  -0.000027   0.000000  -0.012227   0.000081
    21  O   -0.000995  -0.000027   8.467186   0.156197   0.176712  -0.019332
    22  H    0.000003   0.000000   0.156197   0.307760  -0.059961   0.066953
    23  C   -0.040682  -0.012227   0.176712  -0.059961  12.324080   0.286144
    24  O    0.000399   0.000081  -0.019332   0.066953   0.286144   8.478220
    25  N   -0.001155  -0.004276  -0.002314   0.007365   0.761153  -0.193070
    26  H    0.000078   0.000005   0.000068  -0.000050  -0.080095   0.008643
    27  C   -0.005334  -0.001066  -0.009769   0.010103  -1.223531   0.109256
    28  N    0.000021  -0.000051   0.000040  -0.000020  -0.310366   0.005843
    29  C   -0.000149   0.000166   0.000577  -0.000816  -0.993628   0.100562
    30  C    0.000380  -0.000248   0.016508  -0.008007   0.810290  -0.045341
    31  C   -0.000003   0.000004   0.000106  -0.000043  -0.217484   0.008739
    32  H   -0.000000   0.000000   0.000000   0.000000   0.000391  -0.000003
    33  H   -0.000000   0.000000  -0.000000   0.000000   0.001766  -0.000007
    34  H   -0.000000  -0.000000  -0.000000  -0.000000  -0.002069  -0.000000
    35  O    0.000000  -0.000002   0.000004   0.000000   0.076065  -0.001863
    36  H   -0.000000   0.000000  -0.000067   0.000037   0.033316  -0.008080
              25         26         27         28         29         30
     1  C   -0.119442  -0.003852  -0.097001  -0.002004  -0.010954  -0.009355
     2  C   -0.033231  -0.001444  -0.022872  -0.000343   0.000368   0.002730
     3  C   -0.010117  -0.000231  -0.008497  -0.000025  -0.000068  -0.000925
     4  C    0.006376   0.000095   0.001396   0.000112   0.000264  -0.001006
     5  C    0.022314  -0.000115   0.016796   0.001191   0.005534   0.002042
     6  C   -0.188978   0.007376  -0.344691   0.000452  -0.013623  -0.055877
     7  H   -0.000037  -0.000000   0.000018  -0.000000   0.000000  -0.000000
     8  H   -0.000000  -0.000000   0.000000  -0.000000   0.000000  -0.000000
     9  H    0.000000   0.000000  -0.000000   0.000000  -0.000000  -0.000000
    10  H   -0.000022   0.000000   0.000088  -0.000000   0.000001  -0.000002
    11  C   -0.462578   0.022833  -1.438613   0.012058  -0.067922  -0.513259
    12  C    0.271556  -0.003803   0.332216  -0.071329  -0.231214   0.176945
    13  S   -0.054084  -0.005797  -0.045468  -0.001656   0.019865  -0.023990
    14  O   -0.028348  -0.000315  -0.033439   0.000142   0.000381  -0.003069
    15  O    0.001370  -0.000251   0.005393  -0.000151  -0.000379   0.000579
    16  N   -0.265376   0.009396  -0.350103  -0.007921   0.057261  -0.071949
    17  C   -0.113328  -0.007841  -0.115182  -0.005114   0.015033  -0.032826
    18  H    0.009532  -0.000926   0.033708  -0.000304   0.000919  -0.001906
    19  H   -0.001155   0.000078  -0.005334   0.000021  -0.000149   0.000380
    20  H   -0.004276   0.000005  -0.001066  -0.000051   0.000166  -0.000248
    21  O   -0.002314   0.000068  -0.009769   0.000040   0.000577   0.016508
    22  H    0.007365  -0.000050   0.010103  -0.000020  -0.000816  -0.008007
    23  C    0.761153  -0.080095  -1.223531  -0.310366  -0.993628   0.810290
    24  O   -0.193070   0.008643   0.109256   0.005843   0.100562  -0.045341
    25  N    7.621404   0.253018   0.330444  -0.162233  -0.318497  -0.015632
    26  H    0.253018   0.371100   0.024367   0.017810   0.051274  -0.007907
    27  C    0.330444   0.024367  13.472789  -0.731213   0.207436  -2.114814
    28  N   -0.162233   0.017810  -0.731213   7.555286   0.742911  -0.335599
    29  C   -0.318497   0.051274   0.207436   0.742911  12.149124  -5.315095
    30  C   -0.015632  -0.007907  -2.114814  -0.335599  -5.315095  14.978102
    31  C   -0.061690   0.003702  -2.286233   0.786198   0.034279  -2.274782
    32  H    0.000038  -0.000000  -0.009335  -0.000557  -0.096062   0.036835
    33  H   -0.000003  -0.000000  -0.009612  -0.001037  -0.109999   0.043920
    34  H    0.000104   0.000000   0.022003  -0.003389  -0.027989   0.004378
    35  O    0.043589  -0.002271  -0.077439   0.052368   0.142140   0.099270
    36  H   -0.001491  -0.000109   0.153482  -0.009625  -0.001566   0.199519
              31         32         33         34         35         36
     1  C   -0.000862   0.000000  -0.000000  -0.000000   0.000156   0.000078
     2  C   -0.000010   0.000000  -0.000000   0.000000   0.000036  -0.000007
     3  C   -0.000002   0.000000  -0.000000  -0.000000   0.000001   0.000001
     4  C    0.000019  -0.000000   0.000000  -0.000000  -0.000003  -0.000004
     5  C    0.000400  -0.000000   0.000000  -0.000000  -0.000084  -0.000128
     6  C   -0.002584  -0.000001   0.000000   0.000002   0.000722  -0.000020
     7  H    0.000000   0.000000   0.000000  -0.000000   0.000000   0.000000
     8  H    0.000000   0.000000   0.000000   0.000000   0.000000   0.000000
     9  H   -0.000000   0.000000   0.000000  -0.000000  -0.000000  -0.000000
    10  H    0.000000   0.000000  -0.000000   0.000000   0.000000  -0.000000
    11  C   -0.019008  -0.000042   0.000038  -0.000014   0.003147   0.000523
    12  C   -0.036221  -0.000114  -0.000033   0.000189   0.019424  -0.002240
    13  S    0.001191   0.000000  -0.000000   0.000000   0.000364   0.000027
    14  O    0.000051   0.000000   0.000000  -0.000000  -0.000021  -0.000001
    15  O   -0.000011  -0.000000  -0.000000   0.000000   0.000001   0.000000
    16  N    0.005462   0.000001  -0.000000  -0.000001  -0.000728   0.000118
    17  C    0.001625   0.000001  -0.000001   0.000001  -0.000256  -0.000043
    18  H   -0.000006   0.000000   0.000000  -0.000000   0.000028   0.000000
    19  H   -0.000003  -0.000000  -0.000000  -0.000000   0.000000  -0.000000
    20  H    0.000004   0.000000   0.000000  -0.000000  -0.000002   0.000000
    21  O    0.000106   0.000000  -0.000000  -0.000000   0.000004  -0.000067
    22  H   -0.000043   0.000000   0.000000  -0.000000   0.000000   0.000037
    23  C   -0.217484   0.000391   0.001766  -0.002069   0.076065   0.033316
    24  O    0.008739  -0.000003  -0.000007  -0.000000  -0.001863  -0.008080
    25  N   -0.061690   0.000038  -0.000003   0.000104   0.043589  -0.001491
    26  H    0.003702  -0.000000  -0.000000   0.000000  -0.002271  -0.000109
    27  C   -2.286233  -0.009335  -0.009612   0.022003  -0.077439   0.153482
    28  N    0.786198  -0.000557  -0.001037  -0.003389   0.052368  -0.009625
    29  C    0.034279  -0.096062  -0.109999  -0.027989   0.142140  -0.001566
    30  C   -2.274782   0.036835   0.043920   0.004378   0.099270   0.199519
    31  C    9.716585   0.427272   0.432973   0.357463  -0.234752  -0.045901
    32  H    0.427272   0.503027  -0.025135  -0.022877  -0.004890   0.000029
    33  H    0.432973  -0.025135   0.501528  -0.022669  -0.004709   0.000030
    34  H    0.357463  -0.022877  -0.022669   0.508762   0.008174   0.000115
    35  O   -0.234752  -0.004890  -0.004709   0.008174   7.764397   0.009255
    36  H   -0.045901   0.000029   0.000030   0.000115   0.009255   0.482460
 Mulliken charges:
               1
     1  C   -1.292716
     2  C    0.339047
     3  C    0.034079
     4  C   -0.002684
     5  C   -0.101724
     6  C    0.787804
     7  H    0.188788
     8  H    0.165867
     9  H    0.164603
    10  H    0.179945
    11  C   -0.157631
    12  C   -0.394805
    13  S    1.251778
    14  O   -0.414734
    15  O   -0.498206
    16  N   -0.642475
    17  C   -0.130981
    18  H    0.172820
    19  H    0.172973
    20  H    0.204459
    21  O   -0.523570
    22  H    0.448013
    23  C    0.586277
    24  O   -0.646869
    25  N   -0.292361
    26  H    0.345245
    27  C    0.204716
    28  N   -0.531492
    29  C   -0.340134
    30  C    0.460089
    31  C   -0.596478
    32  H    0.191420
    33  H    0.192949
    34  H    0.177817
    35  O    0.107878
    36  H    0.190292
 Sum of Mulliken charges =  -0.00000
 Mulliken charges with hydrogens summed into heavy atoms:
               1
     1  C   -1.292716
     2  C    0.527835
     3  C    0.199946
     4  C    0.161918
     5  C    0.078221
     6  C    0.787804
    11  C   -0.157631
    12  C   -0.394805
    13  S    1.251778
    14  O   -0.414734
    15  O   -0.498206
    16  N   -0.642475
    17  C    0.419271
    21  O   -0.075556
    23  C    0.586277
    24  O   -0.646869
    25  N    0.052883
    27  C    0.204716
    28  N   -0.531492
    29  C   -0.340134
    30  C    0.650381
    31  C   -0.034292
    35  O    0.107878
 Electronic spatial extent (au):  <R**2>=           9292.8302
 Charge=             -0.0000 electrons
 Dipole moment (field-independent basis, Debye):
    X=             -1.7972    Y=              4.2651    Z=              3.1248  Tot=              5.5844
 Quadrupole moment (field-independent basis, Debye-Ang):
   XX=           -101.7546   YY=           -149.8774   ZZ=           -143.3943
   XY=              3.2570   XZ=             -5.1750   YZ=             -3.2014
 Traceless Quadrupole moment (field-independent basis, Debye-Ang):
   XX=             29.9208   YY=            -18.2019   ZZ=            -11.7188
   XY=              3.2570   XZ=             -5.1750   YZ=             -3.2014
 Octapole moment (field-independent basis, Debye-Ang**2):
  XXX=             12.5639  YYY=             32.6312  ZZZ=             12.1119  XYY=             -6.4734
  XXY=            103.9856  XXZ=             -9.2830  XZZ=             21.0050  YZZ=             -4.7800
  YYZ=              5.4920  XYZ=             -2.4658
 Hexadecapole moment (field-independent basis, Debye-Ang**3):
 XXXX=          -7996.3109 YYYY=          -1833.0546 ZZZZ=           -494.9254 XXXY=            327.9245
 XXXZ=            -75.7140 YYYX=            -39.4663 YYYZ=              4.4044 ZZZX=            -10.0046
 ZZZY=            -23.6191 XXYY=          -1998.1533 XXZZ=          -1832.2271 YYZZ=           -387.3543
 XXYZ=             25.3071 YYXZ=            -15.9503 ZZXY=              7.7818
 N-N= 2.131576714475D+03 E-N=-7.725994826716D+03  KE= 1.466864254422D+03
 ******************************Gaussian NBO Version 3.1******************************
             N A T U R A L   A T O M I C   O R B I T A L   A N D
          N A T U R A L   B O N D   O R B I T A L   A N A L Y S I S
 ******************************Gaussian NBO Version 3.1******************************
       /RESON  / : Allow strongly delocalized NBO set

 Analyzing the SCF density

 Job title: Isoxicam                                                        

 Storage needed:    772538 in NPA,   1026981 in NBO ( 104850760 available)
 GSVD:  LWork=      150244 too small for GESVD, short by       59288 words or       59288 for optimal perf.
 Remove ICRem=  315 ICRemI=  314 L=0 PNAO number  315 atom   23 type  51 NPNAO=  506
   due to symmetric orthogonalization 2, value= 0.00D+00.
 GSVD:  LWork=      151162 too small for GESVD, short by       56543 words or       56543 for optimal perf.

 Computed number of electrons  173.99993969 does not match expected value of   174.


 NATURAL POPULATIONS:  Natural atomic orbital occupancies 
                                                          
   NAO  Atom  No  lang   Type(AO)    Occupancy      Energy
 ----------------------------------------------------------
     1    C    1  S      Cor( 1S)     1.99873     -10.17634
     2    C    1  S      Val( 2S)     0.96658      -0.25359
     3    C    1  S      Ryd( 4S)     0.00303       1.08372
     4    C    1  S      Ryd( 3S)     0.00164       0.63881
     5    C    1  S      Ryd( 5S)     0.00005       4.29014
     6    C    1  px     Val( 2p)     1.12782      -0.15831
     7    C    1  px     Ryd( 4p)     0.00729       0.99267
     8    C    1  px     Ryd( 3p)     0.00071       0.40494
     9    C    1  py     Val( 2p)     1.09888      -0.15140
    10    C    1  py     Ryd( 4p)     0.00797       0.88767
    11    C    1  py     Ryd( 3p)     0.00175       0.52090
    12    C    1  pz     Val( 2p)     1.08672      -0.17493
    13    C    1  pz     Ryd( 4p)     0.00345       0.62488
    14    C    1  pz     Ryd( 3p)     0.00211       0.33264
    15    C    1  dxy    Ryd( 3d)     0.00078       2.36145
    16    C    1  dxz    Ryd( 3d)     0.00063       1.89250
    17    C    1  dyz    Ryd( 3d)     0.00050       1.90232
    18    C    1  dx2y2  Ryd( 3d)     0.00045       2.42445
    19    C    1  dz2    Ryd( 3d)     0.00037       2.26438
 
    20    C    2  S      Cor( 1S)     1.99903     -10.15058
    21    C    2  S      Val( 2S)     0.95808      -0.21665
    22    C    2  S      Ryd( 4S)     0.00130       1.11119
    23    C    2  S      Ryd( 3S)     0.00009       0.69568
    24    C    2  S      Ryd( 5S)     0.00003       4.07311
    25    C    2  px     Val( 2p)     1.06808      -0.08810
    26    C    2  px     Ryd( 4p)     0.00493       0.68808
    27    C    2  px     Ryd( 3p)     0.00015       0.33479
    28    C    2  py     Val( 2p)     1.21774      -0.11478
    29    C    2  py     Ryd( 4p)     0.00621       1.07082
    30    C    2  py     Ryd( 3p)     0.00013       0.35550
    31    C    2  pz     Val( 2p)     0.96008      -0.14147
    32    C    2  pz     Ryd( 4p)     0.00104       0.59984
    33    C    2  pz     Ryd( 3p)     0.00025       0.24992
    34    C    2  dxy    Ryd( 3d)     0.00044       2.45756
    35    C    2  dxz    Ryd( 3d)     0.00048       1.93326
    36    C    2  dyz    Ryd( 3d)     0.00037       1.88737
    37    C    2  dx2y2  Ryd( 3d)     0.00053       2.47120
    38    C    2  dz2    Ryd( 3d)     0.00034       2.30729
 
    39    C    3  S      Cor( 1S)     1.99914     -10.15390
    40    C    3  S      Val( 2S)     0.96737      -0.22181
    41    C    3  S      Ryd( 4S)     0.00085       1.12241
    42    C    3  S      Ryd( 3S)     0.00009       0.41704
    43    C    3  S      Ryd( 5S)     0.00002       4.13875
    44    C    3  px     Val( 2p)     1.20306      -0.10542
    45    C    3  px     Ryd( 4p)     0.00521       1.06731
    46    C    3  px     Ryd( 3p)     0.00022       0.22280
    47    C    3  py     Val( 2p)     1.06402      -0.07885
    48    C    3  py     Ryd( 4p)     0.00456       0.64666
    49    C    3  py     Ryd( 3p)     0.00011       0.29666
    50    C    3  pz     Val( 2p)     0.97107      -0.14044
    51    C    3  pz     Ryd( 4p)     0.00101       0.55967
    52    C    3  pz     Ryd( 3p)     0.00051       0.21645
    53    C    3  dxy    Ryd( 3d)     0.00051       2.42211
    54    C    3  dxz    Ryd( 3d)     0.00036       1.86369
    55    C    3  dyz    Ryd( 3d)     0.00042       1.92842
    56    C    3  dx2y2  Ryd( 3d)     0.00052       2.47519
    57    C    3  dz2    Ryd( 3d)     0.00034       2.28464
 
    58    C    4  S      Cor( 1S)     1.99915     -10.15201
    59    C    4  S      Val( 2S)     0.96658      -0.22051
    60    C    4  S      Ryd( 4S)     0.00090       1.13382
    61    C    4  S      Ryd( 3S)     0.00008       0.44535
    62    C    4  S      Ryd( 5S)     0.00002       4.08807
    63    C    4  px     Val( 2p)     1.12738      -0.08835
    64    C    4  px     Ryd( 4p)     0.00486       0.83212
    65    C    4  px     Ryd( 3p)     0.00020       0.23755
    66    C    4  py     Val( 2p)     1.14277      -0.09426
    67    C    4  py     Ryd( 4p)     0.00485       0.88491
    68    C    4  py     Ryd( 3p)     0.00018       0.26885
    69    C    4  pz     Val( 2p)     0.97402      -0.14010
    70    C    4  pz     Ryd( 4p)     0.00092       0.56892
    71    C    4  pz     Ryd( 3p)     0.00048       0.20193
    72    C    4  dxy    Ryd( 3d)     0.00051       2.49448
    73    C    4  dxz    Ryd( 3d)     0.00043       1.89378
    74    C    4  dyz    Ryd( 3d)     0.00037       1.89662
    75    C    4  dx2y2  Ryd( 3d)     0.00050       2.41011
    76    C    4  dz2    Ryd( 3d)     0.00033       2.29209
 
    77    C    5  S      Cor( 1S)     1.99909     -10.14912
    78    C    5  S      Val( 2S)     0.95594      -0.20906
    79    C    5  S      Ryd( 4S)     0.00093       1.13206
    80    C    5  S      Ryd( 3S)     0.00011       0.56136
    81    C    5  S      Ryd( 5S)     0.00003       4.14768
    82    C    5  px     Val( 2p)     1.07211      -0.07973
    83    C    5  px     Ryd( 4p)     0.00467       0.77643
    84    C    5  px     Ryd( 3p)     0.00014       0.41726
    85    C    5  py     Val( 2p)     1.19643      -0.10387
    86    C    5  py     Ryd( 4p)     0.00526       1.02996
    87    C    5  py     Ryd( 3p)     0.00012       0.28923
    88    C    5  pz     Val( 2p)     0.95739      -0.13912
    89    C    5  pz     Ryd( 4p)     0.00097       0.60310
    90    C    5  pz     Ryd( 3p)     0.00021       0.24526
    91    C    5  dxy    Ryd( 3d)     0.00054       2.46146
    92    C    5  dxz    Ryd( 3d)     0.00044       1.91873
    93    C    5  dyz    Ryd( 3d)     0.00036       1.90210
    94    C    5  dx2y2  Ryd( 3d)     0.00045       2.50661
    95    C    5  dz2    Ryd( 3d)     0.00033       2.32172
 
    96    C    6  S      Cor( 1S)     1.99894     -10.15654
    97    C    6  S      Val( 2S)     0.87582      -0.18100
    98    C    6  S      Ryd( 3S)     0.00114       1.08111
    99    C    6  S      Ryd( 4S)     0.00009       1.22680
   100    C    6  S      Ryd( 5S)     0.00004       3.64294
   101    C    6  px     Val( 2p)     1.08317      -0.10395
   102    C    6  px     Ryd( 4p)     0.00574       1.08237
   103    C    6  px     Ryd( 3p)     0.00096       0.49966
   104    C    6  py     Val( 2p)     1.10011      -0.10652
   105    C    6  py     Ryd( 4p)     0.00626       0.96545
   106    C    6  py     Ryd( 3p)     0.00123       0.44397
   107    C    6  pz     Val( 2p)     1.02339      -0.14936
   108    C    6  pz     Ryd( 4p)     0.00117       0.61241
   109    C    6  pz     Ryd( 3p)     0.00166       0.28252
   110    C    6  dxy    Ryd( 3d)     0.00047       2.49316
   111    C    6  dxz    Ryd( 3d)     0.00045       1.91381
   112    C    6  dyz    Ryd( 3d)     0.00058       1.92519
   113    C    6  dx2y2  Ryd( 3d)     0.00075       2.47959
   114    C    6  dz2    Ryd( 3d)     0.00036       2.31410
 
   115    H    7  S      Val( 1S)     0.71800       0.05293
   116    H    7  S      Ryd( 2S)     0.00103       0.59879
   117    H    7  px     Ryd( 2p)     0.00011       2.53298
   118    H    7  py     Ryd( 2p)     0.00027       3.00659
   119    H    7  pz     Ryd( 2p)     0.00017       2.18707
 
   120    H    8  S      Val( 1S)     0.73791       0.04657
   121    H    8  S      Ryd( 2S)     0.00065       0.53065
   122    H    8  px     Ryd( 2p)     0.00026       3.01136
   123    H    8  py     Ryd( 2p)     0.00010       2.49738
   124    H    8  pz     Ryd( 2p)     0.00016       2.17146
 
   125    H    9  S      Val( 1S)     0.73900       0.04684
   126    H    9  S      Ryd( 2S)     0.00071       0.52984
   127    H    9  px     Ryd( 2p)     0.00017       2.72851
   128    H    9  py     Ryd( 2p)     0.00019       2.77676
   129    H    9  pz     Ryd( 2p)     0.00016       2.17870
 
   130    H   10  S      Val( 1S)     0.72232       0.05515
   131    H   10  S      Ryd( 2S)     0.00107       0.61041
   132    H   10  px     Ryd( 2p)     0.00013       2.57920
   133    H   10  py     Ryd( 2p)     0.00024       2.99419
   134    H   10  pz     Ryd( 2p)     0.00017       2.19051
 
   135    C   11  S      Cor( 1S)     1.99874     -10.23219
   136    C   11  S      Val( 2S)     0.81921      -0.17383
   137    C   11  S      Ryd( 4S)     0.00171       1.39934
   138    C   11  S      Ryd( 5S)     0.00016       3.63859
   139    C   11  S      Ryd( 3S)     0.00004       0.73675
   140    C   11  px     Val( 2p)     1.04044      -0.08345
   141    C   11  px     Ryd( 4p)     0.00341       0.93264
   142    C   11  px     Ryd( 3p)     0.00018       0.60936
   143    C   11  py     Val( 2p)     0.80649      -0.07627
   144    C   11  py     Ryd( 4p)     0.01065       0.93961
   145    C   11  py     Ryd( 3p)     0.00018       0.44891
   146    C   11  pz     Val( 2p)     0.87874      -0.14794
   147    C   11  pz     Ryd( 4p)     0.00111       0.65795
   148    C   11  pz     Ryd( 3p)     0.00039       0.31046
   149    C   11  dxy    Ryd( 3d)     0.00145       2.46624
   150    C   11  dxz    Ryd( 3d)     0.00079       1.92610
   151    C   11  dyz    Ryd( 3d)     0.00227       2.00511
   152    C   11  dx2y2  Ryd( 3d)     0.00168       2.46910
   153    C   11  dz2    Ryd( 3d)     0.00067       2.31002
 
   154    C   12  S      Cor( 1S)     1.99882     -10.17465
   155    C   12  S      Val( 2S)     0.85824      -0.19026
   156    C   12  S      Ryd( 4S)     0.00121       1.16402
   157    C   12  S      Ryd( 3S)     0.00043       1.13854
   158    C   12  S      Ryd( 5S)     0.00007       3.93067
   159    C   12  px     Val( 2p)     1.08321      -0.10602
   160    C   12  px     Ryd( 4p)     0.00352       0.95889
   161    C   12  px     Ryd( 3p)     0.00095       0.54586
   162    C   12  py     Val( 2p)     0.90684      -0.07767
   163    C   12  py     Ryd( 4p)     0.00734       1.08524
   164    C   12  py     Ryd( 3p)     0.00138       0.45633
   165    C   12  pz     Val( 2p)     1.20811      -0.16301
   166    C   12  pz     Ryd( 4p)     0.00481       0.73826
   167    C   12  pz     Ryd( 3p)     0.00198       0.25805
   168    C   12  dxy    Ryd( 3d)     0.00093       2.45837
   169    C   12  dxz    Ryd( 3d)     0.00038       1.94155
   170    C   12  dyz    Ryd( 3d)     0.00064       2.04597
   171    C   12  dx2y2  Ryd( 3d)     0.00092       2.43890
   172    C   12  dz2    Ryd( 3d)     0.00046       2.27807
 
   173    S   13  S      Cor( 1S)     2.00000     -88.02180
   174    S   13  S      Cor( 2S)     1.99885      -9.32791
   175    S   13  S      Val( 3S)     1.03609      -0.56108
   176    S   13  S      Ryd( 4S)     0.00544       0.90618
   177    S   13  S      Ryd( 5S)     0.00026       2.07310
   178    S   13  S      Ryd( 6S)     0.00019       2.21297
   179    S   13  px     Cor( 2p)     1.99985      -6.18319
   180    S   13  px     Val( 3p)     0.84784      -0.18455
   181    S   13  px     Ryd( 5p)     0.00817       0.54355
   182    S   13  px     Ryd( 4p)     0.00027       0.35158
   183    S   13  py     Cor( 2p)     1.99990      -6.18153
   184    S   13  py     Val( 3p)     0.79544      -0.16428
   185    S   13  py     Ryd( 5p)     0.00857       0.60769
   186    S   13  py     Ryd( 4p)     0.00089       0.40078
   187    S   13  pz     Cor( 2p)     1.99989      -6.18080
   188    S   13  pz     Val( 3p)     0.73443      -0.14497
   189    S   13  pz     Ryd( 5p)     0.00946       0.59189
   190    S   13  pz     Ryd( 4p)     0.00058       0.33867
   191    S   13  dxy    Ryd( 3d)     0.03356       0.94795
   192    S   13  dxz    Ryd( 3d)     0.03416       0.92813
   193    S   13  dyz    Ryd( 3d)     0.03871       0.91738
   194    S   13  dx2y2  Ryd( 3d)     0.01970       0.94070
   195    S   13  dz2    Ryd( 3d)     0.03324       1.02822
 
   196    O   14  S      Cor( 1S)     1.99986     -19.03836
   197    O   14  S      Val( 2S)     1.82235      -1.01937
   198    O   14  S      Ryd( 4S)     0.00072       1.80534
   199    O   14  S      Ryd( 3S)     0.00017       1.63614
   200    O   14  S      Ryd( 5S)     0.00003       3.98568
   201    O   14  px     Val( 2p)     1.76340      -0.32269
   202    O   14  px     Ryd( 4p)     0.00120       0.97006
   203    O   14  px     Ryd( 3p)     0.00041       0.69818
   204    O   14  py     Val( 2p)     1.78070      -0.31632
   205    O   14  py     Ryd( 4p)     0.00156       0.93558
   206    O   14  py     Ryd( 3p)     0.00027       0.74223
   207    O   14  pz     Val( 2p)     1.52687      -0.36924
   208    O   14  pz     Ryd( 4p)     0.00067       0.85698
   209    O   14  pz     Ryd( 3p)     0.00056       0.81044
   210    O   14  dxy    Ryd( 3d)     0.00062       1.85967
   211    O   14  dxz    Ryd( 3d)     0.00632       2.05138
   212    O   14  dyz    Ryd( 3d)     0.00661       1.98653
   213    O   14  dx2y2  Ryd( 3d)     0.00071       1.84542
   214    O   14  dz2    Ryd( 3d)     0.00773       2.23299
 
   215    O   15  S      Cor( 1S)     1.99986     -19.04476
   216    O   15  S      Val( 2S)     1.82048      -1.02171
   217    O   15  S      Ryd( 3S)     0.00295       0.83287
   218    O   15  S      Ryd( 4S)     0.00036       2.18514
   219    O   15  S      Ryd( 5S)     0.00004       3.82572
   220    O   15  px     Val( 2p)     1.76455      -0.32987
   221    O   15  px     Ryd( 3p)     0.00133       0.79853
   222    O   15  px     Ryd( 4p)     0.00024       0.80282
   223    O   15  py     Val( 2p)     1.58461      -0.36499
   224    O   15  py     Ryd( 4p)     0.00079       0.87307
   225    O   15  py     Ryd( 3p)     0.00031       0.83456
   226    O   15  pz     Val( 2p)     1.74468      -0.33140
   227    O   15  pz     Ryd( 3p)     0.00138       0.75647
   228    O   15  pz     Ryd( 4p)     0.00022       0.82737
   229    O   15  dxy    Ryd( 3d)     0.00539       2.02098
   230    O   15  dxz    Ryd( 3d)     0.00156       1.88884
   231    O   15  dyz    Ryd( 3d)     0.00590       2.07848
   232    O   15  dx2y2  Ryd( 3d)     0.00543       2.04382
   233    O   15  dz2    Ryd( 3d)     0.00310       1.93405
 
   234    N   16  S      Cor( 1S)     1.99944     -14.31308
   235    N   16  S      Val( 2S)     1.35343      -0.64208
   236    N   16  S      Ryd( 4S)     0.00289       1.52742
   237    N   16  S      Ryd( 3S)     0.00143       0.94319
   238    N   16  S      Ryd( 5S)     0.00005       3.78055
   239    N   16  px     Val( 2p)     1.60982      -0.32672
   240    N   16  px     Ryd( 4p)     0.00561       0.89836
   241    N   16  px     Ryd( 3p)     0.00095       0.75589
   242    N   16  py     Val( 2p)     1.43712      -0.29193
   243    N   16  py     Ryd( 4p)     0.00533       0.69792
   244    N   16  py     Ryd( 3p)     0.00139       0.67765
   245    N   16  pz     Val( 2p)     1.35042      -0.30180
   246    N   16  pz     Ryd( 4p)     0.00513       0.78482
   247    N   16  pz     Ryd( 3p)     0.00160       0.71494
   248    N   16  dxy    Ryd( 3d)     0.00100       2.23908
   249    N   16  dxz    Ryd( 3d)     0.00081       2.15263
   250    N   16  dyz    Ryd( 3d)     0.00078       2.05831
   251    N   16  dx2y2  Ryd( 3d)     0.00082       2.29328
   252    N   16  dz2    Ryd( 3d)     0.00073       2.32582
 
   253    C   17  S      Cor( 1S)     1.99952     -10.18754
   254    C   17  S      Val( 2S)     1.10782      -0.31848
   255    C   17  S      Ryd( 4S)     0.00080       1.17975
   256    C   17  S      Ryd( 3S)     0.00024       0.67438
   257    C   17  S      Ryd( 5S)     0.00002       4.34738
   258    C   17  px     Val( 2p)     1.26484      -0.14553
   259    C   17  px     Ryd( 4p)     0.00225       0.66465
   260    C   17  px     Ryd( 3p)     0.00036       0.26421
   261    C   17  py     Val( 2p)     1.26823      -0.14417
   262    C   17  py     Ryd( 4p)     0.00210       0.67169
   263    C   17  py     Ryd( 3p)     0.00031       0.25963
   264    C   17  pz     Val( 2p)     0.85435      -0.10166
   265    C   17  pz     Ryd( 4p)     0.00310       0.54781
   266    C   17  pz     Ryd( 3p)     0.00030       0.15244
   267    C   17  dxy    Ryd( 3d)     0.00032       2.24112
   268    C   17  dxz    Ryd( 3d)     0.00093       2.25995
   269    C   17  dyz    Ryd( 3d)     0.00057       2.12861
   270    C   17  dx2y2  Ryd( 3d)     0.00045       2.37353
   271    C   17  dz2    Ryd( 3d)     0.00104       2.31168
 
   272    H   18  S      Val( 1S)     0.74250       0.03260
   273    H   18  S      Ryd( 2S)     0.00085       0.70758
   274    H   18  px     Ryd( 2p)     0.00024       2.85672
   275    H   18  py     Ryd( 2p)     0.00013       2.33885
   276    H   18  pz     Ryd( 2p)     0.00012       2.42426
 
   277    H   19  S      Val( 1S)     0.76410       0.02606
   278    H   19  S      Ryd( 2S)     0.00122       0.72718
   279    H   19  px     Ryd( 2p)     0.00021       2.69152
   280    H   19  py     Ryd( 2p)     0.00016       2.50299
   281    H   19  pz     Ryd( 2p)     0.00012       2.46573
 
   282    H   20  S      Val( 1S)     0.72204       0.05410
   283    H   20  S      Ryd( 2S)     0.00060       0.69932
   284    H   20  px     Ryd( 2p)     0.00013       2.33094
   285    H   20  py     Ryd( 2p)     0.00026       3.02419
   286    H   20  pz     Ryd( 2p)     0.00008       2.28437
 
   287    O   21  S      Cor( 1S)     1.99976     -19.07016
   288    O   21  S      Val( 2S)     1.64977      -0.96141
   289    O   21  S      Ryd( 4S)     0.00117       1.74231
   290    O   21  S      Ryd( 5S)     0.00018       3.32104
   291    O   21  S      Ryd( 3S)     0.00011       1.43358
   292    O   21  px     Val( 2p)     1.68792      -0.37159
   293    O   21  px     Ryd( 4p)     0.00207       1.09747
   294    O   21  px     Ryd( 3p)     0.00061       1.04038
   295    O   21  py     Val( 2p)     1.56545      -0.36414
   296    O   21  py     Ryd( 3p)     0.00269       0.76458
   297    O   21  py     Ryd( 4p)     0.00039       0.94843
   298    O   21  pz     Val( 2p)     1.79154      -0.35783
   299    O   21  pz     Ryd( 3p)     0.00385       0.53852
   300    O   21  pz     Ryd( 4p)     0.00026       0.92365
   301    O   21  dxy    Ryd( 3d)     0.00160       2.33830
   302    O   21  dxz    Ryd( 3d)     0.00057       1.95019
   303    O   21  dyz    Ryd( 3d)     0.00206       2.07958
   304    O   21  dx2y2  Ryd( 3d)     0.00128       2.85467
   305    O   21  dz2    Ryd( 3d)     0.00087       2.40161
 
   306    H   22  S      Val( 1S)     0.43086       0.14977
   307    H   22  S      Ryd( 2S)     0.00323       0.86357
   308    H   22  px     Ryd( 2p)     0.00120       3.17426
   309    H   22  py     Ryd( 2p)     0.00037       2.61188
   310    H   22  pz     Ryd( 2p)     0.00058       2.29766
 
   311    C   23  S      Cor( 1S)     1.99905     -10.26751
   312    C   23  S      Val( 2S)     0.75719      -0.11182
   313    C   23  S      Ryd( 3S)     0.00253       1.14585
   314    C   23  S      Ryd( 4S)     0.00024       3.64736
   315    C   23  px     Val( 2p)     0.93824      -0.06072
   316    C   23  px     Ryd( 4p)     0.00827       0.90710
   317    C   23  px     Ryd( 3p)     0.00036       0.68559
   318    C   23  py     Val( 2p)     0.77323      -0.03270
   319    C   23  py     Ryd( 4p)     0.01515       0.88735
   320    C   23  py     Ryd( 3p)     0.00019       0.53259
   321    C   23  pz     Val( 2p)     0.78766      -0.13941
   322    C   23  pz     Ryd( 4p)     0.00097       0.64624
   323    C   23  pz     Ryd( 3p)     0.00055       0.34793
   324    C   23  dxy    Ryd( 3d)     0.00234       2.61093
   325    C   23  dxz    Ryd( 3d)     0.00108       1.93017
   326    C   23  dyz    Ryd( 3d)     0.00235       2.18079
   327    C   23  dx2y2  Ryd( 3d)     0.00157       2.67467
   328    C   23  dz2    Ryd( 3d)     0.00176       2.34655
 
   329    O   24  S      Cor( 1S)     1.99978     -18.98410
   330    O   24  S      Val( 2S)     1.70100      -0.94321
   331    O   24  S      Ryd( 4S)     0.00054       2.66269
   332    O   24  S      Ryd( 3S)     0.00036       1.22830
   333    O   24  S      Ryd( 5S)     0.00007       2.68521
   334    O   24  px     Val( 2p)     1.82928      -0.30684
   335    O   24  px     Ryd( 4p)     0.00279       1.20681
   336    O   24  px     Ryd( 3p)     0.00051       0.99880
   337    O   24  py     Val( 2p)     1.56877      -0.32130
   338    O   24  py     Ryd( 3p)     0.00064       0.97453
   339    O   24  py     Ryd( 4p)     0.00036       1.30970
   340    O   24  pz     Val( 2p)     1.57223      -0.29203
   341    O   24  pz     Ryd( 3p)     0.00219       0.61820
   342    O   24  pz     Ryd( 4p)     0.00042       0.88089
   343    O   24  dxy    Ryd( 3d)     0.00380       2.13734
   344    O   24  dxz    Ryd( 3d)     0.00092       1.81233
   345    O   24  dyz    Ryd( 3d)     0.00414       1.87731
   346    O   24  dx2y2  Ryd( 3d)     0.00462       2.19944
   347    O   24  dz2    Ryd( 3d)     0.00165       2.04271
 
   348    N   25  S      Cor( 1S)     1.99932     -14.29613
   349    N   25  S      Val( 2S)     1.25063      -0.57155
   350    N   25  S      Ryd( 4S)     0.00114       1.52683
   351    N   25  S      Ryd( 3S)     0.00020       0.95599
   352    N   25  S      Ryd( 5S)     0.00003       4.12318
   353    N   25  px     Val( 2p)     1.31175      -0.27483
   354    N   25  px     Ryd( 3p)     0.00242       1.19577
   355    N   25  px     Ryd( 4p)     0.00048       1.29662
   356    N   25  py     Val( 2p)     1.42291      -0.29527
   357    N   25  py     Ryd( 4p)     0.00322       1.24084
   358    N   25  py     Ryd( 3p)     0.00038       0.79497
   359    N   25  pz     Val( 2p)     1.66088      -0.30008
   360    N   25  pz     Ryd( 3p)     0.00312       0.63256
   361    N   25  pz     Ryd( 4p)     0.00053       0.68092
   362    N   25  dxy    Ryd( 3d)     0.00025       2.64000
   363    N   25  dxz    Ryd( 3d)     0.00044       1.92249
   364    N   25  dyz    Ryd( 3d)     0.00030       1.91737
   365    N   25  dx2y2  Ryd( 3d)     0.00032       2.67334
   366    N   25  dz2    Ryd( 3d)     0.00037       2.39236
 
   367    H   26  S      Val( 1S)     0.52150       0.09342
   368    H   26  S      Ryd( 2S)     0.00235       0.81137
   369    H   26  px     Ryd( 2p)     0.00027       2.70393
   370    H   26  py     Ryd( 2p)     0.00044       3.06159
   371    H   26  pz     Ryd( 2p)     0.00033       2.25390
 
   372    C   27  S      Cor( 1S)     1.99922     -10.20734
   373    C   27  S      Val( 2S)     0.81066      -0.15992
   374    C   27  S      Ryd( 3S)     0.00265       1.18036
   375    C   27  S      Ryd( 5S)     0.00025       2.95202
   376    C   27  S      Ryd( 4S)     0.00014       1.37730
   377    C   27  px     Val( 2p)     0.86451      -0.03992
   378    C   27  px     Ryd( 4p)     0.00452       0.93237
   379    C   27  px     Ryd( 3p)     0.00030       0.58880
   380    C   27  py     Val( 2p)     0.97769      -0.07862
   381    C   27  py     Ryd( 4p)     0.01296       0.85012
   382    C   27  py     Ryd( 3p)     0.00057       0.40116
   383    C   27  pz     Val( 2p)     0.96751      -0.13873
   384    C   27  pz     Ryd( 4p)     0.00115       0.62831
   385    C   27  pz     Ryd( 3p)     0.00057       0.22193
   386    C   27  dxy    Ryd( 3d)     0.00075       2.64142
   387    C   27  dxz    Ryd( 3d)     0.00155       1.97813
   388    C   27  dyz    Ryd( 3d)     0.00125       2.04230
   389    C   27  dx2y2  Ryd( 3d)     0.00133       2.50941
   390    C   27  dz2    Ryd( 3d)     0.00038       2.38192
 
   391    N   28  S      Cor( 1S)     1.99934     -14.28873
   392    N   28  S      Val( 2S)     1.48486      -0.59121
   393    N   28  S      Ryd( 4S)     0.00236       1.57186
   394    N   28  S      Ryd( 3S)     0.00038       1.15542
   395    N   28  S      Ryd( 5S)     0.00003       3.69952
   396    N   28  px     Val( 2p)     0.81836      -0.13078
   397    N   28  px     Ryd( 4p)     0.00785       0.91025
   398    N   28  px     Ryd( 3p)     0.00035       0.67438
   399    N   28  py     Val( 2p)     1.53478      -0.22738
[...]
   268. RY*(   9) N  16                  0.00041     1.65193   
   269. RY*(  10) N  16                  0.00030     1.75807   
   270. RY*(  11) N  16                  0.00025     2.35193   
   271. RY*(  12) N  16                  0.00010     2.12761   
   272. RY*(  13) N  16                  0.00006     2.30568   
   273. RY*(  14) N  16                  0.00004     3.68582   
   274. RY*(   1) C  17                  0.00256     0.74475   
   275. RY*(   2) C  17                  0.00188     1.22068   
   276. RY*(   3) C  17                  0.00164     0.58421   
   277. RY*(   4) C  17                  0.00062     1.47581   
   278. RY*(   5) C  17                  0.00026     0.89951   
   279. RY*(   6) C  17                  0.00023     0.79481   
   280. RY*(   7) C  17                  0.00015     0.64249   
   281. RY*(   8) C  17                  0.00010     1.21767   
   282. RY*(   9) C  17                  0.00005     0.94317   
   283. RY*(  10) C  17                  0.00004     1.30613   
   284. RY*(  11) C  17                  0.00000     4.12239   
   285. RY*(  12) C  17                  0.00001     2.01137   
   286. RY*(  13) C  17                  0.00001     2.15071   
   287. RY*(  14) C  17                  0.00001     1.93929   
   288. RY*(   1) H  18                  0.00086     0.72204   
   289. RY*(   2) H  18                  0.00013     2.29396   
   290. RY*(   3) H  18                  0.00010     2.30468   
   291. RY*(   4) H  18                  0.00002     3.00299   
   292. RY*(   1) H  19                  0.00123     0.72671   
   293. RY*(   2) H  19                  0.00012     2.30980   
   294. RY*(   3) H  19                  0.00009     2.32639   
   295. RY*(   4) H  19                  0.00001     3.01991   
   296. RY*(   1) H  20                  0.00061     0.73113   
   297. RY*(   2) H  20                  0.00013     2.30164   
   298. RY*(   3) H  20                  0.00008     2.32945   
   299. RY*(   4) H  20                  0.00001     2.97302   
   300. RY*(   1) O  21                  0.00329     0.53062   
   301. RY*(   2) O  21                  0.00225     0.94991   
   302. RY*(   3) O  21                  0.00036     1.61159   
   303. RY*(   4) O  21                  0.00022     1.34837   
   304. RY*(   5) O  21                  0.00016     1.77682   
   305. RY*(   6) O  21                  0.00011     1.11095   
   306. RY*(   7) O  21                  0.00008     2.07969   
   307. RY*(   8) O  21                  0.00007     1.28764   
   308. RY*(   9) O  21                  0.00004     1.19001   
   309. RY*(  10) O  21                  0.00004     2.59453   
   310. RY*(  11) O  21                  0.00002     1.88545   
   311. RY*(  12) O  21                  0.00001     1.95962   
   312. RY*(  13) O  21                  0.00001     2.99817   
   313. RY*(  14) O  21                  0.00001     2.10702   
   318. RY*(   1) C  23                  0.01522     0.88851   
   319. RY*(   2) C  23                  0.00612     1.15735   
   320. RY*(   3) C  23                  0.00367     2.10843   
   321. RY*(   4) C  23                  0.00226     2.36681   
   322. RY*(   5) C  23                  0.00159     1.30829   
   323. RY*(   6) C  23                  0.00095     1.30592   
   324. RY*(   7) C  23                  0.00041     0.96853   
   325. RY*(   8) C  23                  0.00035     2.31965   
   326. RY*(   9) C  23                  0.00020     3.22111   
   327. RY*(  10) C  23                  0.00015     0.95577   
   328. RY*(  11) C  23                  0.00009     0.84914   
   329. RY*(  12) C  23                  0.00006     0.88857   
   330. RY*(  13) C  23                  0.00003     2.18658   
   331. RY*(   1) O  24                  0.00275     1.12639   
   332. RY*(   2) O  24                  0.00238     0.54081   
   333. RY*(   3) O  24                  0.00065     1.71967   
   334. RY*(   4) O  24                  0.00025     0.84918   
   335. RY*(   5) O  24                  0.00018     1.12656   
   336. RY*(   6) O  24                  0.00013     2.10472   
   337. RY*(   7) O  24                  0.00009     2.21943   
   338. RY*(   8) O  24                  0.00007     2.07539   
   339. RY*(   9) O  24                  0.00005     1.72323   
   340. RY*(  10) O  24                  0.00004     1.68034   
   341. RY*(  11) O  24                  0.00002     1.29098   
   342. RY*(  12) O  24                  0.00002     2.23624   
   343. RY*(  13) O  24                  0.00002     2.07627   
   344. RY*(  14) O  24                  0.00000     1.86730   
   345. RY*(   1) N  25                  0.00327     1.17517   
   346. RY*(   2) N  25                  0.00275     1.17760   
   347. RY*(   3) N  25                  0.00275     0.90375   
   348. RY*(   4) N  25                  0.00093     1.75732   
   349. RY*(   5) N  25                  0.00054     1.54893   
   350. RY*(   6) N  25                  0.00029     1.25987   
   351. RY*(   7) N  25                  0.00016     1.33127   
   352. RY*(   8) N  25                  0.00012     1.08000   
   353. RY*(   9) N  25                  0.00010     1.38436   
   354. RY*(  10) N  25                  0.00006     2.03082   
   355. RY*(  11) N  25                  0.00004     1.87174   
   356. RY*(  12) N  25                  0.00003     1.98417   
   357. RY*(  13) N  25                  0.00001     4.08363   
   358. RY*(  14) N  25                  0.00001     2.39871   
   359. RY*(   1) H  26                  0.00244     0.85332   
   360. RY*(   2) H  26                  0.00033     2.25300   
   361. RY*(   3) H  26                  0.00018     2.61293   
   362. RY*(   4) H  26                  0.00005     3.09565   
   363. RY*(   1) C  27                  0.01178     0.89268   
   364. RY*(   2) C  27                  0.00356     1.05999   
   365. RY*(   3) C  27                  0.00231     1.63644   
   366. RY*(   4) C  27                  0.00215     1.46186   
   367. RY*(   5) C  27                  0.00131     1.84607   
   368. RY*(   6) C  27                  0.00057     1.13685   
   369. RY*(   7) C  27                  0.00028     2.38917   
   370. RY*(   8) C  27                  0.00018     0.72413   
   371. RY*(   9) C  27                  0.00013     1.04818   
   372. RY*(  10) C  27                  0.00011     3.32189   
   373. RY*(  11) C  27                  0.00007     1.59434   
   374. RY*(  12) C  27                  0.00004     0.30528   
   375. RY*(  13) C  27                  0.00003     0.88544   
   376. RY*(  14) C  27                  0.00002     2.36915   
   377. RY*(   1) N  28                  0.00328     0.92428   
   378. RY*(   2) N  28                  0.00164     0.99616   
   379. RY*(   3) N  28                  0.00138     0.84428   
   380. RY*(   4) N  28                  0.00073     1.54341   
   381. RY*(   5) N  28                  0.00061     1.34096   
   382. RY*(   6) N  28                  0.00036     1.03380   
   383. RY*(   7) N  28                  0.00015     1.63061   
   384. RY*(   8) N  28                  0.00006     1.04345   
   385. RY*(   9) N  28                  0.00004     1.13648   
   386. RY*(  10) N  28                  0.00002     2.34263   
   387. RY*(  11) N  28                  0.00002     0.86349   
   388. RY*(  12) N  28                  0.00001     1.34294   
   389. RY*(  13) N  28                  0.00001     3.35871   
   390. RY*(  14) N  28                  0.00001     2.12141   
   391. RY*(   1) C  29                  0.00754     0.85139   
   392. RY*(   2) C  29                  0.00443     1.11380   
   393. RY*(   3) C  29                  0.00239     1.73514   
   394. RY*(   4) C  29                  0.00169     1.07433   
   395. RY*(   5) C  29                  0.00119     1.76590   
   396. RY*(   6) C  29                  0.00050     1.67083   
   397. RY*(   7) C  29                  0.00032     1.88869   
   398. RY*(   8) C  29                  0.00027     1.57649   
   399. RY*(   9) C  29                  0.00011     1.01378   
   400. RY*(  10) C  29                  0.00008     2.75494   
   401. RY*(  11) C  29                  0.00007     0.88475   
   402. RY*(  12) C  29                  0.00001     1.27305   
   403. RY*(  13) C  29                  0.00001     2.29577   
   404. RY*(  14) C  29                  0.00000     0.37970   
   405. RY*(   1) C  30                  0.00306     1.09754   
   406. RY*(   2) C  30                  0.00212     0.73175   
   407. RY*(   3) C  30                  0.00075     0.43871   
   408. RY*(   4) C  30                  0.00056     0.59738   
   409. RY*(   5) C  30                  0.00022     1.82396   
   410. RY*(   6) C  30                  0.00022     1.33457   
   411. RY*(   7) C  30                  0.00016     0.95363   
   412. RY*(   8) C  30                  0.00010     0.71966   
   413. RY*(   9) C  30                  0.00006     0.61842   
   414. RY*(  10) C  30                  0.00003     2.09805   
   415. RY*(  11) C  30                  0.00002     1.75200   
   416. RY*(  12) C  30                  0.00002     2.40288   
   417. RY*(  13) C  30                  0.00001     4.05093   
   418. RY*(  14) C  30                  0.00001     1.81144   
   419. RY*(   1) C  31                  0.00283     0.66535   
   420. RY*(   2) C  31                  0.00071     0.65816   
   421. RY*(   3) C  31                  0.00049     1.32978   
   422. RY*(   4) C  31                  0.00016     0.67244   
   423. RY*(   5) C  31                  0.00014     0.35866   
   424. RY*(   6) C  31                  0.00010     1.29038   
   425. RY*(   7) C  31                  0.00004     1.05255   
   426. RY*(   8) C  31                  0.00001     0.46045   
   427. RY*(   9) C  31                  0.00001     1.11911   
   428. RY*(  10) C  31                  0.00001     1.64104   
   429. RY*(  11) C  31                  0.00000     4.13816   
   430. RY*(  12) C  31                  0.00001     2.09061   
   431. RY*(  13) C  31                  0.00000     1.90137   
   432. RY*(  14) C  31                  0.00000     2.21329   
   433. RY*(   1) H  32                  0.00088     0.65124   
   434. RY*(   2) H  32                  0.00011     2.30426   
   435. RY*(   3) H  32                  0.00010     2.26564   
   436. RY*(   4) H  32                  0.00001     3.01717   
   437. RY*(   1) H  33                  0.00088     0.65211   
   438. RY*(   2) H  33                  0.00010     2.29217   
   439. RY*(   3) H  33                  0.00011     2.27712   
   440. RY*(   4) H  33                  0.00001     3.01754   
   441. RY*(   1) H  34                  0.00033     0.65958   
   442. RY*(   2) H  34                  0.00010     2.25624   
   443. RY*(   3) H  34                  0.00010     2.26864   
   444. RY*(   4) H  34                  0.00001     3.02199   
   445. RY*(   1) O  35                  0.00484     0.85766   
   446. RY*(   2) O  35                  0.00195     0.66118   
   447. RY*(   3) O  35                  0.00139     0.58060   
   448. RY*(   4) O  35                  0.00093     1.90895   
   449. RY*(   5) O  35                  0.00080     1.31298   
   450. RY*(   6) O  35                  0.00027     1.44496   
   451. RY*(   7) O  35                  0.00015     1.17456   
   452. RY*(   8) O  35                  0.00008     1.88638   
   453. RY*(   9) O  35                  0.00004     0.95003   
   454. RY*(  10) O  35                  0.00002     2.37957   
   455. RY*(  11) O  35                  0.00001     3.97237   
   456. RY*(  12) O  35                  0.00000     1.88151   
   457. RY*(  13) O  35                  0.00001     1.71558   
   458. RY*(  14) O  35                  0.00001     2.36959   
   459. RY*(   1) H  36                  0.00088     0.58534   
   460. RY*(   2) H  36                  0.00015     0.07378   
   461. RY*(   3) H  36                  0.00010     2.53866   
   462. RY*(   4) H  36                  0.00001     3.06647   
   463. BD*(   1) C   1 - C   2          0.02190     0.54625   
   464. BD*(   2) C   1 - C   2          0.35724    -0.00737  71(v),72(v),472(r),106(g)
                                                    482(v),484(v),120(v),93(g)
   465. BD*(   1) C   1 - C   6          0.03077     0.52915   
   466. BD*(   1) C   1 - S  13          0.20892     0.15852  219(g),218(g),476(v),468(v)
                                                    467(v),474(v),482(g),483(g)
                                                    225(g),95(g)
   467. BD*(   1) C   2 - C   3          0.01630     0.55155   
   468. BD*(   1) C   2 - H   7          0.01373     0.40957   
   469. BD*(   1) C   3 - C   4          0.01618     0.55198   
   470. BD*(   1) C   3 - H   8          0.01224     0.41237   
   471. BD*(   1) C   4 - C   5          0.01461     0.55914   
   472. BD*(   2) C   4 - C   5          0.29329     0.00628  71(v),72(v),134(g),464(r)
                                                    141(g),148(g),149(g)
   473. BD*(   1) C   4 - H   9          0.01232     0.41298   
   474. BD*(   1) C   5 - C   6          0.02303     0.54434   
   475. BD*(   1) C   5 - H  10          0.01316     0.41449   
   476. BD*(   1) C   6 - C  11          0.03507     0.45578   
   477. BD*(   1) C  11 - C  12          0.03175     0.57559   
   478. BD*(   2) C  11 - C  12          0.28017     0.00074  490(v),72(v),484(v),485(v)
                                                    300(v),196(g),191(g)
   479. BD*(   1) C  11 - O  21          0.01720     0.36940   
   480. BD*(   1) C  12 - N  16          0.02914     0.35557   
   481. BD*(   1) C  12 - C  23          0.06050     0.47241   
   482. BD*(   1) S  13 - O  14          0.14873     0.28210  483(g),485(v),220(g),218(g)
                                                    234(g),464(v),237(g),466(g)
   483. BD*(   1) S  13 - O  15          0.14176     0.27347  482(g),220(g),218(g),485(v)
                                                    222(g),480(v),251(g),249(g)
                                                    465(v),466(g)
   484. BD*(   1) S  13 - N  16          0.26741     0.10959  219(g),218(g),478(v),485(g)
                                                    225(g),480(g),222(g),482(g)
                                                    265(g),464(v),483(g),486(v)
   485. BD*(   1) N  16 - C  17          0.01978     0.28845   
   486. BD*(   1) C  17 - H  18          0.00942     0.38903   
   487. BD*(   1) C  17 - H  19          0.01747     0.37979   
   488. BD*(   1) C  17 - H  20          0.00815     0.40433   
   489. BD*(   1) C  23 - O  24          0.01335     0.53401   
   490. BD*(   2) C  23 - O  24          0.37912    -0.01821  478(v),332(g),320(g),324(g)
                                                    495(r),344(g),83(r)
   491. BD*(   1) C  23 - N  25          0.06480     0.45712   
   492. BD*(   1) N  25 - H  26          0.02444     0.39250   
   493. BD*(   1) N  25 - C  27          0.03202     0.43097   
   494. BD*(   1) C  27 - N  28          0.01590     0.52380   
   495. BD*(   2) C  27 - N  28          0.38017    -0.00512  499(v),371(g),380(g),407(v)
                                                    490(r),379(g)
   496. BD*(   1) C  27 - C  30          0.02802     0.50874   
   497. BD*(   1) N  28 - O  35          0.01985     0.24486   
   498. BD*(   1) C  29 - C  30          0.02337     0.60019   
   499. BD*(   2) C  29 - C  30          0.26113     0.02196  495(v),407(g),504(v),503(v)
                                                    460(v),398(g)
   500. BD*(   1) C  29 - C  31          0.01760     0.43154   
   501. BD*(   1) C  29 - O  35          0.04192     0.36421   
   502. BD*(   1) C  30 - H  36          0.01247     0.43850   
   503. BD*(   1) C  31 - H  32          0.00881     0.39880   
   504. BD*(   1) C  31 - H  33          0.00886     0.40052   
   505. BD*(   1) C  31 - H  34          0.00359     2.58717   
       -------------------------------
              Total Lewis  168.63182  ( 97.1585%)
        Valence non-Lewis    4.40617  (  2.5386%)
        Rydberg non-Lewis    0.52570  (  0.3029%)
       -------------------------------
            Total unit  1  173.56369  (100.0000%)
           Charge unit  1   -0.56369
 
 Molecular unit  2  (H)
    83. LP*(   1) H  22                  0.43173     0.16387  314(g),312(r),316(g),303(r)
                                                    313(r),479(r),317(g),308(r)
                                                    201(r),489(r),477(r),302(r)
                                                    318(r),305(r),306(r),190(r)
                                                    304(r),160(r),307(r),476(r)
                                                    491(r),147(r),337(r),204(r)
                                                    475(r),186(r),199(r),465(r)
                                                    480(r),151(r),474(r),193(r)
                                                    481(r),490(r),311(r),161(r)
                                                    197(r),471(r),206(r),153(r)
                                                    321(r),166(r),301(r)
   314. RY*(   1) H  22                  0.00345     1.05124   
   315. RY*(   2) H  22                  0.00058     2.28606   
   316. RY*(   3) H  22                  0.00042     2.82034   
   317. RY*(   4) H  22                  0.00007     2.77569   
       -------------------------------
              Total Lewis    0.00000  (  0.0000%)
        Valence non-Lewis    0.43173  ( 98.9657%)
        Rydberg non-Lewis    0.00451  (  1.0343%)
       -------------------------------
            Total unit  2    0.43624  (100.0000%)
           Charge unit  2    0.56376
 Unable to Open any file for archive entry.
 1\1\GINC-USER\SP\RM06\6-31+G(d,p)\C14H13N3O5S1\USER\25-May-2022\0\\# p
 op=nbo m06/6-31+g(d,p)\\Isoxicam\\0,1\C,0,-3.098007,-0.275499,-0.14686
 2\C,0,-4.445792,-0.596026,-0.097961\C,0,-5.374198,0.427261,0.074677\C,
 0,-4.944761,1.747869,0.190277\C,0,-3.59025,2.05859,0.151763\C,0,-2.642
 744,1.044344,-0.006799\H,0,-4.754851,-1.63404,-0.193689\H,0,-6.434546,
 0.192607,0.115283\H,0,-5.673486,2.544159,0.317463\H,0,-3.249437,3.0853
 83,0.248983\C,0,-1.208229,1.349557,-0.016675\C,0,-0.257033,0.38307,0.1
 84438\S,0,-1.886158,-1.539543,-0.464455\O,0,-1.462781,-1.448168,-1.848
 846\O,0,-2.350088,-2.792883,0.106895\N,0,-0.6161,-0.969118,0.489651\C,
 0,-0.725886,-1.270929,1.927933\H,0,0.227601,-1.008014,2.396092\H,0,-1.
 528297,-0.690869,2.407316\H,0,-0.909014,-2.338376,2.0628\O,0,-0.910954
 ,2.619516,-0.254694\H,0,0.079459,2.69914,-0.21389\C,0,1.162088,0.71320
 7,0.0756\O,0,1.553129,1.884878,-0.047724\N,0,2.015069,-0.349066,0.1224
 58\H,0,1.600571,-1.277117,0.126214\C,0,3.39782,-0.283988,0.049877\N,0,
 4.062891,-1.418077,0.103036\C,0,5.490051,0.286626,-0.087228\C,0,4.2496
 06,0.84527,-0.069912\C,0,6.854195,0.8464,-0.194389\H,0,7.456061,0.5768
 13,0.680255\H,0,7.365954,0.457797,-1.081518\H,0,6.809122,1.935664,-0.2
 66041\O,0,5.394054,-1.050293,0.013703\H,0,3.968335,1.884452,-0.137094\
 \Version=ES64L-G16RevC.01\State=1-A\HF=-1479.1684955\RMSD=6.433e-09\Di
 pole=-0.7070882,1.6780148,1.2293749\Quadrupole=22.2453799,-13.5327022,
 -8.7126776,2.4215125,-3.8474624,-2.3801308\PG=C01 [X(C14H13N3O5S1)]\\@
 The archive entry for this job was punched.


 HERE WE GO......
 SLIDING DOWN THE RAZOR BLADE OF LIFE......
                                 TOM LEHRER
 Job cpu time:       0 days  1 hours 30 minutes 21.9 seconds.
 Elapsed time:       0 days  0 hours 23 minutes 17.6 seconds.
 File lengths (MBytes):  RWF=    134 Int=      0 D2E=      0 Chk=     16 Scr=      1
 Normal termination of Gaussian 16 at Wed May 25 14:23:16 2022.
