 Entering Gaussian System, Link 0=/home/user/SOFTWARE/gauss/g16/g16
 Input=/home/user/WorkIMPORTANT/Joydeep/I-M2/I-M2.gjf
 Output=/home/user/WorkIMPORTANT/Joydeep/I-M2/I-M2.log
 Initial command:
 /home/user/SOFTWARE/gauss/g16/l1.exe "/home/user/SOFTWARE/gauss/scratch/Gau-31778.inp" -scrdir="/home/user/SOFTWARE/gauss/scratch/"
 Entering Link 1 = /home/user/SOFTWARE/gauss/g16/l1.exe PID=     31780.
  
 Copyright (c) 1988-2019, Gaussian, Inc.  All Rights Reserved.
  
 This is part of the Gaussian(R) 16 program.  It is based on
 the Gaussian(R) 09 system (copyright 2009, Gaussian, Inc.),
 the Gaussian(R) 03 system (copyright 2003, Gaussian, Inc.),
 the Gaussian(R) 98 system (copyright 1998, Gaussian, Inc.),
 the Gaussian(R) 94 system (copyright 1995, Gaussian, Inc.),
 the Gaussian 92(TM) system (copyright 1992, Gaussian, Inc.),
 the Gaussian 90(TM) system (copyright 1990, Gaussian, Inc.),
 the Gaussian 88(TM) system (copyright 1988, Gaussian, Inc.),
 the Gaussian 86(TM) system (copyright 1986, Carnegie Mellon
 University), and the Gaussian 82(TM) system (copyright 1983,
 Carnegie Mellon University). Gaussian is a federally registered
 trademark of Gaussian, Inc.
  
 This software contains proprietary and confidential information,
 including trade secrets, belonging to Gaussian, Inc.
  
 This software is provided under written license and may be
 used, copied, transmitted, or stored only in accord with that
 written license.
  
 The following legend is applicable only to US Government
 contracts under FAR:
  
                    RESTRICTED RIGHTS LEGEND
  
 Use, reproduction and disclosure by the US Government is
 subject to restrictions as set forth in subparagraphs (a)
 and (c) of the Commercial Computer Software - Restricted
 Rights clause in FAR 52.227-19.
  
 Gaussian, Inc.
 340 Quinnipiac St., Bldg. 40, Wallingford CT 06492
  
  
 ---------------------------------------------------------------
 Warning -- This program may not be used in any manner that
 competes with the business of Gaussian, Inc. or will provide
 assistance to any competitor of Gaussian, Inc.  The licensee
 of this program is prohibited from giving any competitor of
 Gaussian, Inc. access to this program.  By using this program,
 the user acknowledges that Gaussian, Inc. is engaged in the
 business of creating and licensing software in the field of
 computational chemistry and represents and warrants to the
 licensee that it is not a competitor of Gaussian, Inc. and that
 it will not use this program in any manner prohibited above.
 ---------------------------------------------------------------
  

 Cite this work as:
 Gaussian 16, Revision C.01,
 M. J. Frisch, G. W. Trucks, H. B. Schlegel, G. E. Scuseria, 
 M. A. Robb, J. R. Cheeseman, G. Scalmani, V. Barone, 
 G. A. Petersson, H. Nakatsuji, X. Li, M. Caricato, A. V. Marenich, 
 J. Bloino, B. G. Janesko, R. Gomperts, B. Mennucci, H. P. Hratchian, 
 J. V. Ortiz, A. F. Izmaylov, J. L. Sonnenberg, D. Williams-Young, 
 F. Ding, F. Lipparini, F. Egidi, J. Goings, B. Peng, A. Petrone, 
 T. Henderson, D. Ranasinghe, V. G. Zakrzewski, J. Gao, N. Rega, 
 G. Zheng, W. Liang, M. Hada, M. Ehara, K. Toyota, R. Fukuda, 
 J. Hasegawa, M. Ishida, T. Nakajima, Y. Honda, O. Kitao, H. Nakai, 
 T. Vreven, K. Throssell, J. A. Montgomery, Jr., J. E. Peralta, 
 F. Ogliaro, M. J. Bearpark, J. J. Heyd, E. N. Brothers, K. N. Kudin, 
 V. N. Staroverov, T. A. Keith, R. Kobayashi, J. Normand, 
 K. Raghavachari, A. P. Rendell, J. C. Burant, S. S. Iyengar, 
 J. Tomasi, M. Cossi, J. M. Millam, M. Klene, C. Adamo, R. Cammi, 
 J. W. Ochterski, R. L. Martin, K. Morokuma, O. Farkas, 
 J. B. Foresman, and D. J. Fox, Gaussian, Inc., Wallingford CT, 2019.
 
 ******************************************
 Gaussian 16:  ES64L-G16RevC.01  3-Jul-2019
                15-May-2023 
 ******************************************
 %mem=128GB
 %nprocshared=32
 Will use up to   32 processors via shared memory.
 --------------------------
 # opt freq 6-31+g(d,p) m06
 --------------------------
 1/18=20,19=15,26=3,38=1/1,3;
 2/9=110,12=2,17=6,18=5,40=1/2;
 3/5=1,6=6,7=111,11=2,25=1,30=1,71=1,74=-54/1,2,3;
 4//1;
 5/5=2,38=5/2;
 6/7=2,8=2,9=2,10=2,28=1/1;
 7//1,2,3,16;
 1/18=20,19=15,26=3/3(2);
 2/9=110/2;
 99//99;
 2/9=110/2;
 3/5=1,6=6,7=111,11=2,25=1,30=1,71=1,74=-54/1,2,3;
 4/5=5,16=3,69=1/1;
 5/5=2,38=5/2;
 7//1,2,3,16;
 1/18=20,19=15,26=3/3(-5);
 2/9=110/2;
 6/7=2,8=2,9=2,10=2,19=2,28=1/1;
 99/9=1/99;
 ----
 I-M2
 ----
 Symbolic Z-matrix:
 Charge =  0 Multiplicity = 1
 C                     2.95819   0.23086  -0.00013 
 O                     2.57242  -1.05472   0.00069 
 C                     0.78512   0.10506   0.00038 
 C                     1.86083   1.03327  -0.0004 
 H                     1.82043   2.11388  -0.00093 
 N                     1.18775  -1.14525   0.00103 
 C                     4.41373   0.48779  -0.00084 
 H                     4.61047   1.56238  -0.00046 
 H                     4.8854    0.04403   0.88243 
 H                     4.88437   0.04485  -0.88507 
 N                    -0.55742   0.46519   0.00054 
 H                    -1.24932  -0.27807   0.03896 
 C                    -1.07904   1.71508  -0.04474 
 O                    -0.4933    2.77939  -0.09502 
 C                    -2.61795   1.68983  -0.02621 
 O                    -3.26808   0.83936  -0.58106 
 O                    -3.11693   2.7003    0.66214 
 H                    -4.09266   2.61513   0.62743 
 

 GradGradGradGradGradGradGradGradGradGradGradGradGradGradGradGradGradGrad
 Berny optimization.
 Initialization pass.
                           ----------------------------
                           !    Initial Parameters    !
                           ! (Angstroms and Degrees)  !
 --------------------------                            --------------------------
 ! Name  Definition              Value          Derivative Info.                !
 --------------------------------------------------------------------------------
 ! R1    R(1,2)                  1.3422         estimate D2E/DX2                !
 ! R2    R(1,4)                  1.3594         estimate D2E/DX2                !
 ! R3    R(1,7)                  1.478          estimate D2E/DX2                !
 ! R4    R(2,6)                  1.3876         estimate D2E/DX2                !
 ! R5    R(3,4)                  1.4208         estimate D2E/DX2                !
 ! R6    R(3,6)                  1.3135         estimate D2E/DX2                !
 ! R7    R(3,11)                 1.39           estimate D2E/DX2                !
 ! R8    R(4,5)                  1.0814         estimate D2E/DX2                !
 ! R9    R(7,8)                  1.0925         estimate D2E/DX2                !
 ! R10   R(7,9)                  1.0952         estimate D2E/DX2                !
 ! R11   R(7,10)                 1.0952         estimate D2E/DX2                !
 ! R12   R(11,12)                1.0162         estimate D2E/DX2                !
 ! R13   R(11,13)                1.3551         estimate D2E/DX2                !
 ! R14   R(13,14)                1.2159         estimate D2E/DX2                !
 ! R15   R(13,15)                1.5392         estimate D2E/DX2                !
 ! R16   R(15,16)                1.2058         estimate D2E/DX2                !
 ! R17   R(15,17)                1.3205         estimate D2E/DX2                !
 ! R18   R(17,18)                0.9801         estimate D2E/DX2                !
 ! A1    A(2,1,4)              109.4714         estimate D2E/DX2                !
 ! A2    A(2,1,7)              116.7142         estimate D2E/DX2                !
 ! A3    A(4,1,7)              133.8144         estimate D2E/DX2                !
 ! A4    A(1,2,6)              110.4439         estimate D2E/DX2                !
 ! A5    A(4,3,6)              112.9402         estimate D2E/DX2                !
 ! A6    A(4,3,11)             124.1937         estimate D2E/DX2                !
 ! A7    A(6,3,11)             122.8661         estimate D2E/DX2                !
 ! A8    A(1,4,3)              103.035          estimate D2E/DX2                !
 ! A9    A(1,4,5)              128.316          estimate D2E/DX2                !
 ! A10   A(3,4,5)              128.649          estimate D2E/DX2                !
 ! A11   A(2,6,3)              104.1096         estimate D2E/DX2                !
 ! A12   A(1,7,8)              110.3855         estimate D2E/DX2                !
 ! A13   A(1,7,9)              110.6877         estimate D2E/DX2                !
 ! A14   A(1,7,10)             110.6859         estimate D2E/DX2                !
 ! A15   A(8,7,9)              108.7062         estimate D2E/DX2                !
 ! A16   A(8,7,10)             108.706          estimate D2E/DX2                !
 ! A17   A(9,7,10)             107.588          estimate D2E/DX2                !
 ! A18   A(3,11,12)            117.9129         estimate D2E/DX2                !
 ! A19   A(3,11,13)            127.6435         estimate D2E/DX2                !
 ! A20   A(12,11,13)           114.4436         estimate D2E/DX2                !
 ! A21   A(11,13,14)           128.5581         estimate D2E/DX2                !
 ! A22   A(11,13,15)           111.6731         estimate D2E/DX2                !
 ! A23   A(14,13,15)           119.7687         estimate D2E/DX2                !
 ! A24   A(13,15,16)           123.0319         estimate D2E/DX2                !
 ! A25   A(13,15,17)           111.8082         estimate D2E/DX2                !
 ! A26   A(16,15,17)           125.1599         estimate D2E/DX2                !
 ! A27   A(15,17,18)           106.9317         estimate D2E/DX2                !
 ! D1    D(4,1,2,6)             -0.0013         estimate D2E/DX2                !
 ! D2    D(7,1,2,6)           -179.9887         estimate D2E/DX2                !
 ! D3    D(2,1,4,3)              0.0018         estimate D2E/DX2                !
 ! D4    D(2,1,4,5)            179.9934         estimate D2E/DX2                !
 ! D5    D(7,1,4,3)            179.9861         estimate D2E/DX2                !
 ! D6    D(7,1,4,5)             -0.0223         estimate D2E/DX2                !
 ! D7    D(2,1,7,8)           -179.943          estimate D2E/DX2                !
 ! D8    D(2,1,7,9)            -59.5417         estimate D2E/DX2                !
 ! D9    D(2,1,7,10)            59.657          estimate D2E/DX2                !
 ! D10   D(4,1,7,8)              0.0735         estimate D2E/DX2                !
 ! D11   D(4,1,7,9)            120.4748         estimate D2E/DX2                !
 ! D12   D(4,1,7,10)          -120.3264         estimate D2E/DX2                !
 ! D13   D(1,2,6,3)              0.0002         estimate D2E/DX2                !
 ! D14   D(6,3,4,1)             -0.0018         estimate D2E/DX2                !
 ! D15   D(6,3,4,5)           -179.9933         estimate D2E/DX2                !
 ! D16   D(11,3,4,1)           179.9945         estimate D2E/DX2                !
 ! D17   D(11,3,4,5)             0.0029         estimate D2E/DX2                !
 ! D18   D(4,3,6,2)              0.001          estimate D2E/DX2                !
 ! D19   D(11,3,6,2)          -179.9953         estimate D2E/DX2                !
 ! D20   D(4,3,11,12)         -177.5852         estimate D2E/DX2                !
 ! D21   D(4,3,11,13)            2.3903         estimate D2E/DX2                !
 ! D22   D(6,3,11,12)            2.4107         estimate D2E/DX2                !
 ! D23   D(6,3,11,13)         -177.6138         estimate D2E/DX2                !
 ! D24   D(3,11,13,14)           0.0182         estimate D2E/DX2                !
 ! D25   D(3,11,13,15)        -179.9818         estimate D2E/DX2                !
 ! D26   D(12,11,13,14)        179.9944         estimate D2E/DX2                !
 ! D27   D(12,11,13,15)         -0.0056         estimate D2E/DX2                !
 ! D28   D(11,13,15,16)        -36.1677         estimate D2E/DX2                !
 ! D29   D(11,13,15,17)        143.8393         estimate D2E/DX2                !
 ! D30   D(14,13,15,16)        143.8323         estimate D2E/DX2                !
 ! D31   D(14,13,15,17)        -36.1607         estimate D2E/DX2                !
 ! D32   D(13,15,17,18)        179.9928         estimate D2E/DX2                !
 ! D33   D(16,15,17,18)          0.0            estimate D2E/DX2                !
 --------------------------------------------------------------------------------
 Trust Radius=3.00D-01 FncErr=1.00D-07 GrdErr=1.00D-06 EigMax=2.50D+02 EigMin=1.00D-04
 Number of steps in this run=     88 maximum allowed number of steps=    108.
 GradGradGradGradGradGradGradGradGradGradGradGradGradGradGradGradGradGrad

                          Input orientation:                          
 ---------------------------------------------------------------------
 Center     Atomic      Atomic             Coordinates (Angstroms)
 Number     Number       Type             X           Y           Z
 ---------------------------------------------------------------------
      1          6           0        2.958194    0.230858   -0.000132
      2          8           0        2.572419   -1.054723    0.000690
      3          6           0        0.785117    0.105056    0.000381
      4          6           0        1.860830    1.033266   -0.000401
      5          1           0        1.820427    2.113883   -0.000927
      6          7           0        1.187751   -1.145248    0.001025
      7          6           0        4.413735    0.487792   -0.000839
      8          1           0        4.610469    1.562382   -0.000458
      9          1           0        4.885399    0.044029    0.882428
     10          1           0        4.884365    0.044846   -0.885072
     11          7           0       -0.557421    0.465192    0.000542
     12          1           0       -1.249321   -0.278068    0.038958
     13          6           0       -1.079042    1.715084   -0.044744
     14          8           0       -0.493299    2.779394   -0.095019
     15          6           0       -2.617955    1.689832   -0.026208
     16          8           0       -3.268082    0.839357   -0.581065
     17          8           0       -3.116928    2.700296    0.662137
     18          1           0       -4.092662    2.615130    0.627426
 ---------------------------------------------------------------------
                    Distance matrix (angstroms):
                    1          2          3          4          5
     1  C    0.000000
     2  O    1.342215   0.000000
     3  C    2.176715   2.130619   0.000000
     4  C    1.359436   2.205914   1.420821   0.000000
     5  H    2.200068   3.256618   2.259924   1.081372   0.000000
     6  N    2.242351   1.387624   1.313535   2.280123   3.319973
     7  C    1.478044   2.402041   3.648747   2.610530   3.060951
     8  H    2.122020   3.317060   4.093546   2.800085   2.844027
     9  H    2.127895   2.708246   4.194525   3.302423   3.802455
    10  H    2.127875   2.709007   4.194221   3.301724   3.801361
    11  N    3.523416   3.479374   1.390002   2.484079   2.893501
    12  H    4.238363   3.900045   2.070558   3.375528   3.891835
    13  C    4.301650   4.583346   2.463598   3.018226   2.927095
    14  O    4.291485   4.910014   2.965726   2.932548   2.409375
    15  C    5.763915   5.871396   3.754081   4.526727   4.458665
    16  O    6.282855   6.167449   4.160012   5.165318   5.277679
    17  O    6.591193   6.848820   4.732773   5.291126   5.016075
    18  H    7.469482   7.634391   5.521448   6.191973   5.967470
                    6          7          8          9         10
     6  N    0.000000
     7  C    3.615770   0.000000
     8  H    4.364202   1.092450   0.000000
     9  H    3.982945   1.095241   1.777771   0.000000
    10  H    3.983271   1.095245   1.777773   1.767500   0.000000
    11  N    2.374688   4.971208   5.283078   5.529864   5.529380
    12  H    2.587037   5.714747   6.142146   6.200805   6.211297
    13  C    3.649924   5.628390   5.691732   6.263117   6.249646
    14  O    4.270593   5.416576   5.247715   6.112938   6.084505
    15  C    4.745716   7.133737   7.229593   7.735283   7.728417
    16  O    4.912426   7.711716   7.932933   8.321875   8.196710
    17  O    5.809951   7.876902   7.838784   8.434543   8.571228
    18  H    6.512725   8.790852   8.789028   9.342439   9.459441
                   11         12         13         14         15
    11  N    0.000000
    12  H    1.016188   0.000000
    13  C    1.355127   2.002163   0.000000
    14  O    2.317061   3.152395   1.215886   0.000000
    15  C    2.397136   2.397924   1.539231   2.388732   0.000000
    16  O    2.797490   2.389239   2.417939   3.420439   1.205753
    17  O    3.461859   3.570288   2.371350   2.731843   1.320541
    18  H    4.184871   4.098961   3.216178   3.674823   1.859617
                   16         17         18
    16  O    0.000000
    17  O    2.243098   0.000000
    18  H    2.300816   0.980059   0.000000
 Stoichiometry    C6H6N2O4
 Framework group  C1[X(C6H6N2O4)]
 Deg. of freedom    48
 Full point group                 C1      NOp   1
 Largest Abelian subgroup         C1      NOp   1
 Largest concise Abelian subgroup C1      NOp   1
                         Standard orientation:                         
 ---------------------------------------------------------------------
 Center     Atomic      Atomic             Coordinates (Angstroms)
 Number     Number       Type             X           Y           Z
 ---------------------------------------------------------------------
      1          6           0        2.801120    0.275760   -0.002332
      2          8           0        2.839955   -1.059448    0.129018
      3          6           0        0.778394   -0.526177    0.057417
      4          6           0        1.506914    0.688469   -0.054954
      5          1           0        1.128178    1.696169   -0.157264
      6          7           0        1.554354   -1.580223    0.168083
      7          6           0        4.101566    0.975924   -0.059119
      8          1           0        3.949774    2.052573   -0.165113
      9          1           0        4.680751    0.790848    0.851839
     10          1           0        4.695985    0.619813   -0.907301
     11          7           0       -0.609180   -0.608153    0.052576
     12          1           0       -1.032054   -1.523829    0.176480
     13          6           0       -1.497519    0.403765   -0.099890
     14          8           0       -1.276413    1.588091   -0.263787
     15          6           0       -2.950235   -0.102098   -0.045556
     16          8           0       -3.294162   -1.163446   -0.502824
     17          8           0       -3.748496    0.762019    0.554370
     18          1           0       -4.647361    0.371469    0.549147
 ---------------------------------------------------------------------
 Rotational constants (GHZ):           2.8706511           0.4389688           0.3883349
 Standard basis: 6-31+G(d,p) (6D, 7F)
 There are   258 symmetry adapted cartesian basis functions of A   symmetry.
 There are   258 symmetry adapted basis functions of A   symmetry.
   258 basis functions,   426 primitive gaussians,   258 cartesian basis functions
    44 alpha electrons       44 beta electrons
       nuclear repulsion energy       675.4900803959 Hartrees.
 NAtoms=   18 NActive=   18 NUniq=   18 SFac= 1.00D+00 NAtFMM=   60 NAOKFM=F Big=F
 Integral buffers will be    131072 words long.
 Raffenetti 2 integral format.
 Two-electron integral symmetry is turned on.
 One-electron integrals computed using PRISM.
 NBasis=   258 RedAO= T EigKep=  8.67D-06  NBF=   258
 NBsUse=   258 1.00D-06 EigRej= -1.00D+00 NBFU=   258
 ExpMin= 4.38D-02 ExpMax= 5.48D+03 ExpMxC= 8.25D+02 IAcc=3 IRadAn=         5 AccDes= 0.00D+00
 Harris functional with IExCor= 1009 and IRadAn=       5 diagonalized for initial guess.
 HarFok:  IExCor= 1009 AccDes= 0.00D+00 IRadAn=         5 IDoV= 1 UseB2=F ITyADJ=14
 ICtDFT=  3500011 ScaDFX=  1.000000  1.000000  1.000000  1.000000
 FoFCou: FMM=F IPFlag=           0 FMFlag=      100000 FMFlg1=           0
         NFxFlg=           0 DoJE=T BraDBF=F KetDBF=T FulRan=T
         wScrn=  0.000000 ICntrl=       500 IOpCl=  0 I1Cent=   200000004 NGrid=           0
         NMat0=    1 NMatS0=      1 NMatT0=    0 NMatD0=    1 NMtDS0=    0 NMtDT0=    0
 Petite list used in FoFCou.
 Requested convergence on RMS density matrix=1.00D-08 within 128 cycles.
 Requested convergence on MAX density matrix=1.00D-06.
 Requested convergence on             energy=1.00D-06.
 No special actions if energy rises.
 SCF Done:  E(RM06) =  -642.301971787     A.U. after   15 cycles
            NFock= 15  Conv=0.55D-08     -V/T= 2.0097

 **********************************************************************

            Population analysis using the SCF Density.

 **********************************************************************

 Orbital symmetries:
       Occupied  (A) (A) (A) (A) (A) (A) (A) (A) (A) (A) (A) (A)
                 (A) (A) (A) (A) (A) (A) (A) (A) (A) (A) (A) (A)
                 (A) (A) (A) (A) (A) (A) (A) (A) (A) (A) (A) (A)
                 (A) (A) (A) (A) (A) (A) (A) (A)
       Virtual   (A) (A) (A) (A) (A) (A) (A) (A) (A) (A) (A) (A)
                 (A) (A) (A) (A) (A) (A) (A) (A) (A) (A) (A) (A)
                 (A) (A) (A) (A) (A) (A) (A) (A) (A) (A) (A) (A)
                 (A) (A) (A) (A) (A) (A) (A) (A) (A) (A) (A) (A)
                 (A) (A) (A) (A) (A) (A) (A) (A) (A) (A) (A) (A)
                 (A) (A) (A) (A) (A) (A) (A) (A) (A) (A) (A) (A)
                 (A) (A) (A) (A) (A) (A) (A) (A) (A) (A) (A) (A)
                 (A) (A) (A) (A) (A) (A) (A) (A) (A) (A) (A) (A)
                 (A) (A) (A) (A) (A) (A) (A) (A) (A) (A) (A) (A)
                 (A) (A) (A) (A) (A) (A) (A) (A) (A) (A) (A) (A)
                 (A) (A) (A) (A) (A) (A) (A) (A) (A) (A) (A) (A)
                 (A) (A) (A) (A) (A) (A) (A) (A) (A) (A) (A) (A)
                 (A) (A) (A) (A) (A) (A) (A) (A) (A) (A) (A) (A)
                 (A) (A) (A) (A) (A) (A) (A) (A) (A) (A) (A) (A)
                 (A) (A) (A) (A) (A) (A) (A) (A) (A) (A) (A) (A)
                 (A) (A) (A) (A) (A) (A) (A) (A) (A) (A) (A) (A)
                 (A) (A) (A) (A) (A) (A) (A) (A) (A) (A) (A) (A)
                 (A) (A) (A) (A) (A) (A) (A) (A) (A) (A)
 The electronic state is 1-A.
 Alpha  occ. eigenvalues --  -19.34113 -19.32906 -19.27426 -19.25425 -14.49395
 Alpha  occ. eigenvalues --  -14.47514 -10.43638 -10.41175 -10.35750 -10.35029
 Alpha  occ. eigenvalues --  -10.28527 -10.27498  -1.18870  -1.18174  -1.10349
 Alpha  occ. eigenvalues --   -1.09041  -1.00667  -0.89583  -0.83929  -0.75326
 Alpha  occ. eigenvalues --   -0.75187  -0.68184  -0.64161  -0.61460  -0.57286
 Alpha  occ. eigenvalues --   -0.54196  -0.54080  -0.52213  -0.51454  -0.50270
 Alpha  occ. eigenvalues --   -0.48577  -0.46860  -0.45235  -0.44396  -0.43961
 Alpha  occ. eigenvalues --   -0.43166  -0.41086  -0.38278  -0.38015  -0.36759
 Alpha  occ. eigenvalues --   -0.33804  -0.30270  -0.29216  -0.28224
 Alpha virt. eigenvalues --   -0.06849  -0.03867  -0.02436  -0.01607  -0.01509
 Alpha virt. eigenvalues --   -0.00125  -0.00048   0.00799   0.01493   0.01640
 Alpha virt. eigenvalues --    0.02885   0.03149   0.03651   0.04050   0.05017
 Alpha virt. eigenvalues --    0.05104   0.05921   0.06716   0.08089   0.08745
 Alpha virt. eigenvalues --    0.09238   0.09819   0.10881   0.11102   0.11219
 Alpha virt. eigenvalues --    0.13460   0.14088   0.14683   0.15644   0.16314
 Alpha virt. eigenvalues --    0.17131   0.17472   0.18273   0.18528   0.19990
 Alpha virt. eigenvalues --    0.20142   0.20620   0.20901   0.21199   0.22337
 Alpha virt. eigenvalues --    0.22728   0.23423   0.23770   0.24356   0.24802
 Alpha virt. eigenvalues --    0.25125   0.25394   0.27090   0.28131   0.28550
 Alpha virt. eigenvalues --    0.28811   0.29071   0.29523   0.29734   0.30387
 Alpha virt. eigenvalues --    0.31277   0.32158   0.34223   0.35110   0.35751
 Alpha virt. eigenvalues --    0.36562   0.37569   0.37786   0.39136   0.44949
 Alpha virt. eigenvalues --    0.45919   0.47888   0.49590   0.53543   0.59446
 Alpha virt. eigenvalues --    0.62141   0.64073   0.66925   0.67935   0.69403
 Alpha virt. eigenvalues --    0.69758   0.70790   0.72014   0.72707   0.73749
 Alpha virt. eigenvalues --    0.75296   0.76689   0.80480   0.81994   0.85355
 Alpha virt. eigenvalues --    0.88106   0.89305   0.91015   0.92359   0.93969
 Alpha virt. eigenvalues --    0.94572   0.96837   0.97570   1.00354   1.00532
 Alpha virt. eigenvalues --    1.02418   1.04086   1.07525   1.09809   1.10558
 Alpha virt. eigenvalues --    1.13376   1.14453   1.16776   1.17423   1.19580
 Alpha virt. eigenvalues --    1.22235   1.22962   1.24016   1.25634   1.27447
 Alpha virt. eigenvalues --    1.28257   1.29225   1.30899   1.31572   1.32687
 Alpha virt. eigenvalues --    1.33870   1.34468   1.36376   1.38619   1.41508
 Alpha virt. eigenvalues --    1.42033   1.43165   1.44366   1.46546   1.49770
 Alpha virt. eigenvalues --    1.53604   1.54952   1.56639   1.58670   1.61285
 Alpha virt. eigenvalues --    1.63963   1.66249   1.67147   1.67657   1.70217
 Alpha virt. eigenvalues --    1.72690   1.75069   1.80079   1.81459   1.84380
 Alpha virt. eigenvalues --    1.86308   1.87576   1.90809   1.91182   1.93753
 Alpha virt. eigenvalues --    1.96174   1.96976   1.98464   2.00457   2.02904
 Alpha virt. eigenvalues --    2.03844   2.03852   2.07438   2.08915   2.11676
 Alpha virt. eigenvalues --    2.13773   2.14575   2.20195   2.23560   2.26022
 Alpha virt. eigenvalues --    2.26989   2.28878   2.31023   2.34677   2.35490
 Alpha virt. eigenvalues --    2.36839   2.39979   2.44346   2.45788   2.48498
 Alpha virt. eigenvalues --    2.50114   2.51540   2.52401   2.55053   2.59528
 Alpha virt. eigenvalues --    2.60810   2.63116   2.65196   2.68509   2.70348
 Alpha virt. eigenvalues --    2.73907   2.76862   2.79955   2.85035   2.85510
 Alpha virt. eigenvalues --    2.89220   2.95090   2.97036   2.97734   2.99309
 Alpha virt. eigenvalues --    3.02549   3.10855   3.17403   3.20454   3.20867
 Alpha virt. eigenvalues --    3.23374   3.29250   3.36393   3.41711   3.43105
 Alpha virt. eigenvalues --    3.50245   3.63192   4.11965   4.18281   4.24754
 Alpha virt. eigenvalues --    4.31332   4.35308   4.38649   4.44773   4.48659
 Alpha virt. eigenvalues --    4.49766   4.61124   4.63723   4.75855
          Condensed to atoms (all electrons):
               1          2          3          4          5          6
     1  C   11.128577   0.128060   0.537192  -5.519045   0.003556   0.484312
     2  O    0.128060   7.864498  -0.006217   0.182917   0.007537   0.022244
     3  C    0.537192  -0.006217   8.998817  -1.324864   0.089023  -0.396380
     4  C   -5.519045   0.182917  -1.324864  14.311458   0.232754  -0.432341
     5  H    0.003556   0.007537   0.089023   0.232754   0.473946  -0.002453
     6  N    0.484312   0.022244  -0.396380  -0.432341  -0.002453   7.422789
     7  C    0.512747  -0.289260  -1.047669  -2.703281  -0.014661   0.521362
     8  H   -0.048004   0.007681   0.009521   0.006752   0.000131  -0.002577
     9  H   -0.093992  -0.004435  -0.003656   0.043599   0.000036  -0.001061
    10  H   -0.084443  -0.004060  -0.001434   0.038873   0.000032  -0.001824
    11  N   -0.239199   0.033258   0.195143  -0.015565  -0.007276  -0.135286
    12  H    0.048371  -0.003228   0.034932  -0.014879  -0.000105   0.021329
    13  C   -0.675292   0.032933  -1.058780   0.840019   0.017583  -0.106057
    14  O    0.096187  -0.001772  -0.036285  -0.046667  -0.009269   0.008838
    15  C   -0.060872  -0.000533  -0.022808  -0.042223   0.012187   0.009246
    16  O    0.001870  -0.000143   0.032243  -0.000999   0.000046   0.001368
    17  O    0.001608  -0.000050   0.014747  -0.000741   0.000005   0.000220
    18  H    0.000149  -0.000000  -0.001234   0.000347  -0.000000  -0.000000
               7          8          9         10         11         12
     1  C    0.512747  -0.048004  -0.093992  -0.084443  -0.239199   0.048371
     2  O   -0.289260   0.007681  -0.004435  -0.004060   0.033258  -0.003228
     3  C   -1.047669   0.009521  -0.003656  -0.001434   0.195143   0.034932
     4  C   -2.703281   0.006752   0.043599   0.038873  -0.015565  -0.014879
     5  H   -0.014661   0.000131   0.000036   0.000032  -0.007276  -0.000105
     6  N    0.521362  -0.002577  -0.001061  -0.001824  -0.135286   0.021329
     7  C    8.497739   0.387244   0.411532   0.405405  -0.037695   0.004398
     8  H    0.387244   0.504888  -0.022604  -0.022396  -0.000008   0.000000
     9  H    0.411532  -0.022604   0.500990  -0.024960   0.000102  -0.000000
    10  H    0.405405  -0.022396  -0.024960   0.499812   0.000103  -0.000000
    11  N   -0.037695  -0.000008   0.000102   0.000103   7.394525   0.267854
    12  H    0.004398   0.000000  -0.000000  -0.000000   0.267854   0.369444
    13  C   -0.109191  -0.001303   0.000980   0.000764   0.076671  -0.104279
    14  O    0.006886  -0.000001  -0.000002  -0.000004  -0.115750   0.006757
    15  C   -0.002547  -0.000140   0.000046   0.000054  -0.143197   0.028382
    16  O    0.000334  -0.000000   0.000000  -0.000000   0.030260   0.007088
    17  O    0.000284  -0.000000   0.000000  -0.000000   0.021528   0.000917
    18  H    0.000003  -0.000000   0.000000  -0.000000  -0.002271  -0.000018
              13         14         15         16         17         18
     1  C   -0.675292   0.096187  -0.060872   0.001870   0.001608   0.000149
     2  O    0.032933  -0.001772  -0.000533  -0.000143  -0.000050  -0.000000
     3  C   -1.058780  -0.036285  -0.022808   0.032243   0.014747  -0.001234
     4  C    0.840019  -0.046667  -0.042223  -0.000999  -0.000741   0.000347
     5  H    0.017583  -0.009269   0.012187   0.000046   0.000005  -0.000000
     6  N   -0.106057   0.008838   0.009246   0.001368   0.000220  -0.000000
     7  C   -0.109191   0.006886  -0.002547   0.000334   0.000284   0.000003
     8  H   -0.001303  -0.000001  -0.000140  -0.000000  -0.000000  -0.000000
     9  H    0.000980  -0.000002   0.000046   0.000000   0.000000   0.000000
    10  H    0.000764  -0.000004   0.000054  -0.000000  -0.000000  -0.000000
    11  N    0.076671  -0.115750  -0.143197   0.030260   0.021528  -0.002271
    12  H   -0.104279   0.006757   0.028382   0.007088   0.000917  -0.000018
    13  C    7.227529   0.383984  -0.786900  -0.114138  -0.115793   0.013043
    14  O    0.383984   8.199071  -0.017870   0.000794   0.008492   0.000329
    15  C   -0.786900  -0.017870   6.084509   0.407032   0.119941   0.024061
    16  O   -0.114138   0.000794   0.407032   8.201883  -0.135887   0.002700
    17  O   -0.115793   0.008492   0.119941  -0.135887   8.283444   0.201969
    18  H    0.013043   0.000329   0.024061   0.002700   0.201969   0.370040
 Mulliken charges:
               1
     1  C   -0.221784
     2  O    0.030572
     3  C   -0.012291
     4  C    0.443885
     5  H    0.196928
     6  N   -0.413731
     7  C   -0.543629
     8  H    0.180816
     9  H    0.193425
    10  H    0.194078
    11  N   -0.323195
    12  H    0.333036
    13  C    0.478228
    14  O   -0.483718
    15  C    0.391632
    16  O   -0.434450
    17  O   -0.400684
    18  H    0.390881
 Sum of Mulliken charges =  -0.00000
 Mulliken charges with hydrogens summed into heavy atoms:
               1
     1  C   -0.221784
     2  O    0.030572
     3  C   -0.012291
     4  C    0.640813
     6  N   -0.413731
     7  C    0.024690
    11  N    0.009841
    13  C    0.478228
    14  O   -0.483718
    15  C    0.391632
    16  O   -0.434450
    17  O   -0.009803
 Electronic spatial extent (au):  <R**2>=           2663.2614
 Charge=             -0.0000 electrons
 Dipole moment (field-independent basis, Debye):
    X=              0.1225    Y=              1.3519    Z=              0.9499  Tot=              1.6568
 Quadrupole moment (field-independent basis, Debye-Ang):
   XX=            -48.8955   YY=            -77.6241   ZZ=            -68.5926
   XY=              8.4948   XZ=             -5.0412   YZ=             -1.2839
 Traceless Quadrupole moment (field-independent basis, Debye-Ang):
   XX=             16.1419   YY=            -12.5867   ZZ=             -3.5552
   XY=              8.4948   XZ=             -5.0412   YZ=             -1.2839
 Octapole moment (field-independent basis, Debye-Ang**2):
  XXX=            -47.2473  YYY=              4.7929  ZZZ=              0.3484  XYY=              5.3098
  XXY=             36.2979  XXZ=             15.9384  XZZ=             -5.7364  YZZ=             -0.2166
  YYZ=              1.7036  XYZ=              7.0224
 Hexadecapole moment (field-independent basis, Debye-Ang**3):
 XXXX=          -2134.3116 YYYY=           -480.9511 ZZZZ=            -97.5068 XXXY=             -7.0481
 XXXZ=            -93.2509 YYYX=             28.9388 YYYZ=              0.5400 ZZZX=             -1.2492
 ZZZY=              1.0599 XXYY=           -604.4930 XXZZ=           -471.4348 YYZZ=            -97.1542
 XXYZ=            -17.4098 YYXZ=            -10.2105 ZZXY=             -5.7262
 N-N= 6.754900803959D+02 E-N=-2.851724182394D+03  KE= 6.361468327286D+02
 Calling FoFJK, ICntrl=      2127 FMM=F ISym2X=0 I1Cent= 0 IOpClX= 0 NMat=1 NMatS=1 NMatT=0.
 ***** Axes restored to original set *****
 -------------------------------------------------------------------
 Center     Atomic                   Forces (Hartrees/Bohr)
 Number     Number              X              Y              Z
 -------------------------------------------------------------------
      1        6          -0.002803553    0.001246084    0.000039949
      2        8          -0.001360870   -0.006013596    0.000267048
      3        6           0.005244082    0.018657037   -0.000942612
      4        6           0.005169988    0.001296965   -0.000024434
      5        1          -0.001550799   -0.001528028   -0.000205130
      6        7          -0.003815670    0.001643480    0.000163397
      7        6           0.000002701   -0.000655702    0.000016019
      8        1          -0.000379396   -0.000050091   -0.000012555
      9        1           0.000145449    0.000023650    0.000048879
     10        1           0.000134280    0.000035952   -0.000069577
     11        7          -0.005811975   -0.017306630    0.000813487
     12        1           0.002940652   -0.003227106   -0.002823630
     13        6          -0.004092529    0.018263844    0.003212432
     14        8           0.003235498   -0.007680064   -0.000413943
     15        6           0.008690928   -0.005567278   -0.000189882
     16        8          -0.003332672   -0.004988661   -0.001129201
     17        8          -0.010322083    0.004052120    0.001212242
     18        1           0.007905970    0.001798023    0.000037508
 -------------------------------------------------------------------
 Cartesian Forces:  Max     0.018657037 RMS     0.005443888

 GradGradGradGradGradGradGradGradGradGradGradGradGradGradGradGradGradGrad
 Berny optimization.
 FormGI is forming the generalized inverse of G from B-inverse, IUseBI=4.
 Internal  Forces:  Max     0.016810735 RMS     0.003653521
 Search for a local minimum.
 Step number   1 out of a maximum of   88
 All quantities printed in internal units (Hartrees-Bohrs-Radians)
 Mixed Optimization -- RFO/linear search
 Second derivative matrix not updated -- first step.
 ITU=  0
     Eigenvalues ---    0.00247   0.01056   0.01107   0.01372   0.01737
     Eigenvalues ---    0.01824   0.01980   0.02048   0.02130   0.02285
     Eigenvalues ---    0.02330   0.02433   0.02743   0.07472   0.07495
     Eigenvalues ---    0.16000   0.16000   0.16000   0.16000   0.16000
     Eigenvalues ---    0.16000   0.22000   0.23817   0.25000   0.25000
     Eigenvalues ---    0.25000   0.25000   0.25000   0.25000   0.25000
     Eigenvalues ---    0.28587   0.34213   0.34214   0.34531   0.34794
     Eigenvalues ---    0.35829   0.40040   0.44952   0.45601   0.47318
     Eigenvalues ---    0.50243   0.51373   0.53945   0.54157   0.61512
     Eigenvalues ---    0.61797   0.97230   1.01985
 RFO step:  Lambda=-6.28618750D-03 EMin= 2.46992574D-03
 Linear search not attempted -- first point.
 Iteration  1 RMS(Cart)=  0.08837631 RMS(Int)=  0.01483781
 Iteration  2 RMS(Cart)=  0.03169634 RMS(Int)=  0.00073271
 Iteration  3 RMS(Cart)=  0.00098123 RMS(Int)=  0.00037727
 Iteration  4 RMS(Cart)=  0.00000067 RMS(Int)=  0.00037727
 Variable       Old X    -DE/DX   Delta X   Delta X   Delta X     New X
                                 (Linear)    (Quad)   (Total)
    R1        2.53642   0.00327   0.00000   0.00608   0.00607   2.54249
    R2        2.56896   0.00084   0.00000   0.00217   0.00216   2.57113
    R3        2.79310  -0.00021   0.00000  -0.00058  -0.00058   2.79252
    R4        2.62223  -0.00305   0.00000  -0.00665  -0.00665   2.61558
    R5        2.68496  -0.00057   0.00000  -0.00141  -0.00141   2.68355
    R6        2.48222  -0.00159   0.00000  -0.00299  -0.00299   2.47923
    R7        2.62672  -0.00304   0.00000  -0.00634  -0.00634   2.62039
    R8        2.04350  -0.00147   0.00000  -0.00403  -0.00403   2.03947
    R9        2.06443  -0.00012   0.00000  -0.00033  -0.00033   2.06410
   R10        2.06971   0.00009   0.00000   0.00027   0.00027   2.06997
   R11        2.06971   0.00010   0.00000   0.00028   0.00028   2.07000
   R12        1.92032   0.00025   0.00000   0.00055   0.00055   1.92087
   R13        2.56082   0.00452   0.00000   0.00828   0.00828   2.56910
   R14        2.29769  -0.00515   0.00000  -0.00526  -0.00526   2.29243
   R15        2.90873  -0.00286   0.00000  -0.00980  -0.00980   2.89893
   R16        2.27854   0.00584   0.00000   0.00569   0.00569   2.28423
   R17        2.49546   0.00604   0.00000   0.00967   0.00967   2.50513
   R18        1.85204  -0.00803   0.00000  -0.01544  -0.01544   1.83661
    A1        1.91064   0.00218   0.00000   0.01074   0.01073   1.92137
    A2        2.03705  -0.00142   0.00000  -0.00667  -0.00667   2.03037
    A3        2.33550  -0.00076   0.00000  -0.00406  -0.00406   2.33144
    A4        1.92761  -0.00299   0.00000  -0.01094  -0.01094   1.91667
    A5        1.97118   0.00155   0.00000   0.00516   0.00515   1.97633
    A6        2.16759   0.01526   0.00000   0.05999   0.05998   2.22757
    A7        2.14442  -0.01681   0.00000  -0.06515  -0.06515   2.07927
    A8        1.79830  -0.00283   0.00000  -0.01086  -0.01087   1.78743
    A9        2.23954   0.00306   0.00000   0.01531   0.01531   2.25485
   A10        2.24535  -0.00023   0.00000  -0.00444  -0.00444   2.24091
   A11        1.81705   0.00209   0.00000   0.00591   0.00591   1.82297
   A12        1.92659  -0.00064   0.00000  -0.00430  -0.00430   1.92229
   A13        1.93186   0.00027   0.00000   0.00189   0.00189   1.93375
   A14        1.93183   0.00024   0.00000   0.00166   0.00166   1.93349
   A15        1.89728   0.00012   0.00000   0.00031   0.00031   1.89760
   A16        1.89728   0.00010   0.00000   0.00013   0.00013   1.89740
   A17        1.87777  -0.00008   0.00000   0.00039   0.00038   1.87815
   A18        2.05797  -0.00085   0.00000  -0.01032  -0.01059   2.04738
   A19        2.22780  -0.00655   0.00000  -0.02895  -0.02923   2.19857
   A20        1.99742   0.00740   0.00000   0.03929   0.03899   2.03641
   A21        2.24376  -0.00615   0.00000  -0.02399  -0.02500   2.21876
   A22        1.94906  -0.00271   0.00000  -0.01057  -0.01168   1.93738
   A23        2.09036   0.00886   0.00000   0.03456   0.03336   2.12372
   A24        2.14731   0.00079   0.00000   0.00309   0.00251   2.14982
   A25        1.95142  -0.00099   0.00000  -0.00387  -0.00445   1.94697
   A26        2.18445   0.00020   0.00000   0.00077   0.00020   2.18465
   A27        1.86631   0.00144   0.00000   0.00867   0.00867   1.87498
    D1       -0.00002   0.00006   0.00000   0.00199   0.00202   0.00199
    D2       -3.14139   0.00006   0.00000   0.00213   0.00214  -3.13925
    D3        0.00003  -0.00001   0.00000  -0.00016  -0.00018  -0.00015
    D4        3.14148   0.00001   0.00000   0.00080   0.00075  -3.14096
    D5        3.14135  -0.00001   0.00000  -0.00034  -0.00034   3.14101
    D6       -0.00039   0.00001   0.00000   0.00062   0.00059   0.00020
    D7       -3.14060  -0.00001   0.00000   0.00005   0.00006  -3.14054
    D8       -1.03920  -0.00010   0.00000  -0.00115  -0.00114  -1.04034
    D9        1.04121   0.00012   0.00000   0.00162   0.00164   1.04285
   D10        0.00128  -0.00001   0.00000   0.00024   0.00022   0.00151
   D11        2.10268  -0.00010   0.00000  -0.00096  -0.00097   2.10171
   D12       -2.10009   0.00012   0.00000   0.00181   0.00180  -2.09829
   D13        0.00000  -0.00009   0.00000  -0.00302  -0.00304  -0.00304
   D14       -0.00003  -0.00006   0.00000  -0.00186  -0.00186  -0.00189
   D15       -3.14148  -0.00007   0.00000  -0.00282  -0.00278   3.13893
   D16        3.14150  -0.00021   0.00000  -0.00765  -0.00782   3.13367
   D17        0.00005  -0.00023   0.00000  -0.00861  -0.00874  -0.00869
   D18        0.00002   0.00009   0.00000   0.00297   0.00301   0.00303
   D19       -3.14151   0.00024   0.00000   0.00867   0.00842  -3.13309
   D20       -3.09945  -0.00092   0.00000  -0.03556  -0.03532  -3.13476
   D21        0.04172   0.00032   0.00000   0.01068   0.01037   0.05209
   D22        0.04207  -0.00109   0.00000  -0.04190  -0.04159   0.00049
   D23       -3.09995   0.00015   0.00000   0.00433   0.00409  -3.09585
   D24        0.00032   0.00121   0.00000   0.05361   0.05252   0.05283
   D25       -3.14128  -0.00057   0.00000  -0.03519  -0.03465   3.10726
   D26        3.14150   0.00241   0.00000   0.09848   0.09793  -3.04376
   D27       -0.00010   0.00063   0.00000   0.00968   0.01077   0.01067
   D28       -0.63124   0.00240   0.00000   0.25226   0.25308  -0.37816
   D29        2.51047   0.00345   0.00000   0.31266   0.31349   2.82396
   D30        2.51035   0.00080   0.00000   0.17227   0.17143   2.68178
   D31       -0.63112   0.00185   0.00000   0.23267   0.23184  -0.39928
   D32        3.14147  -0.00126   0.00000  -0.05243  -0.05239   3.08908
   D33       -0.00000  -0.00019   0.00000   0.00951   0.00947   0.00947
         Item               Value     Threshold  Converged?
 Maximum Force            0.016811     0.000450     NO 
 RMS     Force            0.003654     0.000300     NO 
 Maximum Displacement     0.454473     0.001800     NO 
 RMS     Displacement     0.114094     0.001200     NO 
 Predicted change in Energy=-4.021692D-03
 GradGradGradGradGradGradGradGradGradGradGradGradGradGradGradGradGradGrad

                          Input orientation:                          
 ---------------------------------------------------------------------
 Center     Atomic      Atomic             Coordinates (Angstroms)
 Number     Number       Type             X           Y           Z
 ---------------------------------------------------------------------
      1          6           0        2.962093    0.240937   -0.016270
      2          8           0        2.553542   -1.039411   -0.079312
      3          6           0        0.795971    0.163670    0.002284
      4          6           0        1.886571    1.072442    0.038799
      5          1           0        1.859666    2.149871    0.095225
      6          7           0        1.170453   -1.091618   -0.070084
      7          6           0        4.422921    0.463798   -0.020403
      8          1           0        4.640423    1.532783    0.034657
      9          1           0        4.894907   -0.035470    0.832721
     10          1           0        4.875132    0.059678   -0.932588
     11          7           0       -0.557376    0.463260    0.040924
     12          1           0       -1.208645   -0.316616    0.011348
     13          6           0       -1.098825    1.710060    0.065280
     14          8           0       -0.506214    2.766938    0.006640
     15          6           0       -2.631433    1.644215    0.056667
     16          8           0       -3.250045    0.684720   -0.340568
     17          8           0       -3.170186    2.784947    0.463914
     18          1           0       -4.134959    2.694153    0.389490
 ---------------------------------------------------------------------
                    Distance matrix (angstroms):
                    1          2          3          4          5
     1  C    0.000000
     2  O    1.345429   0.000000
     3  C    2.167579   2.131460   0.000000
     4  C    1.360581   2.217820   1.420073   0.000000
     5  H    2.207216   3.268554   2.255012   1.079241   0.000000
     6  N    2.233511   1.384105   1.311953   2.282068   3.318070
     7  C    1.477736   2.399518   3.639418   2.609028   3.070259
     8  H    2.118549   3.314248   4.081094   2.792066   2.849048
     9  H    2.129075   2.705863   4.186952   3.302706   3.812126
    10  H    2.128900   2.706632   4.186210   3.301633   3.810294
    11  N    3.526948   3.456920   1.386649   2.518727   2.947829
    12  H    4.207930   3.832062   2.061368   3.392727   3.937654
    13  C    4.319263   4.573870   2.446537   3.052843   2.991154
    14  O    4.290729   4.884443   2.910791   2.932195   2.446632
    15  C    5.767325   5.839889   3.733908   4.554075   4.519640
    16  O    6.236407   6.059910   4.093811   5.165179   5.333454
    17  O    6.656381   6.905206   4.776462   5.355762   5.083175
    18  H    7.520044   7.674329   5.555839   6.245939   6.026472
                    6          7          8          9         10
     6  N    0.000000
     7  C    3.605598   0.000000
     8  H    4.351912   1.092276   0.000000
     9  H    3.975181   1.095382   1.777944   0.000000
    10  H    3.974172   1.095394   1.777833   1.767982   0.000000
    11  N    2.327093   4.980676   5.306697   5.532004   5.533783
    12  H    2.503471   5.685472   6.134526   6.164985   6.168059
    13  C    3.607956   5.661290   5.742067   6.289728   6.277553
    14  O    4.207796   5.440732   5.292617   6.140685   6.096744
    15  C    4.685636   7.152848   7.272742   7.750445   7.735496
    16  O    4.771723   7.682820   7.944777   8.260480   8.170659
    17  O    5.844147   7.954720   7.921981   8.551988   8.608394
    18  H    6.533810   8.853238   8.859008   9.443823   9.479984
                   11         12         13         14         15
    11  N    0.000000
    12  H    1.016480   0.000000
    13  C    1.359511   2.030365   0.000000
    14  O    2.304500   3.162551   1.213102   0.000000
    15  C    2.386757   2.423063   1.534045   2.404072   0.000000
    16  O    2.728561   2.300833   2.417391   3.461906   1.208762
    17  O    3.520784   3.697587   2.367451   2.702993   1.325660
    18  H    4.230541   4.215571   3.208062   3.649611   1.863795
                   16         17         18
    16  O    0.000000
    17  O    2.250449   0.000000
    18  H    2.313845   0.971890   0.000000
 Stoichiometry    C6H6N2O4
 Framework group  C1[X(C6H6N2O4)]
 Deg. of freedom    48
 Full point group                 C1      NOp   1
 Largest Abelian subgroup         C1      NOp   1
 Largest concise Abelian subgroup C1      NOp   1
                         Standard orientation:                         
 ---------------------------------------------------------------------
 Center     Atomic      Atomic             Coordinates (Angstroms)
 Number     Number       Type             X           Y           Z
 ---------------------------------------------------------------------
      1          6           0        2.808643    0.273170   -0.001897
      2          8           0        2.818281   -1.070688    0.062377
      3          6           0        0.773163   -0.470387    0.046499
      4          6           0        1.527530    0.731144   -0.015637
      5          1           0        1.166971    1.747294   -0.062512
      6          7           0        1.519550   -1.548419    0.090947
      7          6           0        4.128290    0.936935   -0.042568
      8          1           0        4.002700    2.020816   -0.092533
      9          1           0        4.714654    0.691647    0.849548
     10          1           0        4.701546    0.608915   -0.916449
     11          7           0       -0.606893   -0.603337    0.070301
     12          1           0       -0.983722   -1.545948    0.122416
     13          6           0       -1.508406    0.410320   -0.019387
     14          8           0       -1.271410    1.588427   -0.185260
     15          6           0       -2.944683   -0.128397   -0.005712
     16          8           0       -3.227488   -1.265478   -0.302656
     17          8           0       -3.818396    0.821898    0.295851
     18          1           0       -4.705865    0.429588    0.240510
 ---------------------------------------------------------------------
 Rotational constants (GHZ):           2.9353458           0.4407679           0.3863715
 Standard basis: 6-31+G(d,p) (6D, 7F)
 There are   258 symmetry adapted cartesian basis functions of A   symmetry.
 There are   258 symmetry adapted basis functions of A   symmetry.
   258 basis functions,   426 primitive gaussians,   258 cartesian basis functions
    44 alpha electrons       44 beta electrons
       nuclear repulsion energy       676.2977333382 Hartrees.
 NAtoms=   18 NActive=   18 NUniq=   18 SFac= 1.00D+00 NAtFMM=   60 NAOKFM=F Big=F
 Integral buffers will be    131072 words long.
 Raffenetti 2 integral format.
 Two-electron integral symmetry is turned on.
 One-electron integrals computed using PRISM.
 NBasis=   258 RedAO= T EigKep=  8.14D-06  NBF=   258
 NBsUse=   258 1.00D-06 EigRej= -1.00D+00 NBFU=   258
 Initial guess from the checkpoint file:  "/home/user/SOFTWARE/gauss/scratch/Gau-31780.chk"
 B after Tr=    -0.000000   -0.000000    0.000000
         Rot=    0.999984    0.005606    0.000849   -0.000182 Ang=   0.65 deg.
 ExpMin= 4.38D-02 ExpMax= 5.48D+03 ExpMxC= 8.25D+02 IAcc=3 IRadAn=         5 AccDes= 0.00D+00
 Harris functional with IExCor= 1009 and IRadAn=       5 diagonalized for initial guess.
 HarFok:  IExCor= 1009 AccDes= 0.00D+00 IRadAn=         5 IDoV= 1 UseB2=F ITyADJ=14
 ICtDFT=  3500011 ScaDFX=  1.000000  1.000000  1.000000  1.000000
 FoFCou: FMM=F IPFlag=           0 FMFlag=      100000 FMFlg1=           0
         NFxFlg=           0 DoJE=T BraDBF=F KetDBF=T FulRan=T
         wScrn=  0.000000 ICntrl=       500 IOpCl=  0 I1Cent=   200000004 NGrid=           0
         NMat0=    1 NMatS0=      1 NMatT0=    0 NMatD0=    1 NMtDS0=    0 NMtDT0=    0
 Petite list used in FoFCou.
 Requested convergence on RMS density matrix=1.00D-08 within 128 cycles.
 Requested convergence on MAX density matrix=1.00D-06.
 Requested convergence on             energy=1.00D-06.
 No special actions if energy rises.
 SCF Done:  E(RM06) =  -642.305951921     A.U. after   14 cycles
            NFock= 14  Conv=0.47D-08     -V/T= 2.0097
 Calling FoFJK, ICntrl=      2127 FMM=F ISym2X=0 I1Cent= 0 IOpClX= 0 NMat=1 NMatS=1 NMatT=0.
 ***** Axes restored to original set *****
 -------------------------------------------------------------------
 Center     Atomic                   Forces (Hartrees/Bohr)
 Number     Number              X              Y              Z
 -------------------------------------------------------------------
      1        6           0.000573057   -0.000324110    0.000167706
      2        8          -0.000629133    0.000176479   -0.000351796
      3        6          -0.000185309    0.008277517   -0.000090146
      4        6           0.001667601   -0.002631611   -0.000095073
      5        1          -0.000415356   -0.000190820   -0.000243653
      6        7          -0.000206012   -0.001381744    0.000517999
      7        6           0.000207414    0.000128542    0.000009353
      8        1           0.000117901    0.000097178   -0.000000347
      9        1           0.000010036    0.000044945   -0.000004753
     10        1           0.000007528    0.000049510    0.000008621
     11        7          -0.002795677   -0.004897742    0.002014711
     12        1           0.000804096   -0.000857065   -0.000824926
     13        6          -0.000489302    0.003953370   -0.006043724
     14        8           0.001479197   -0.002282355    0.004164174
     15        6           0.000718275    0.001616487   -0.003098640
     16        8           0.000084691   -0.001463482    0.003282982
     17        8          -0.001725522   -0.000526988    0.000504935
     18        1           0.000776515    0.000211889    0.000082577
 -------------------------------------------------------------------
 Cartesian Forces:  Max     0.008277517 RMS     0.002049131

 GradGradGradGradGradGradGradGradGradGradGradGradGradGradGradGradGradGrad
 Berny optimization.
 Using GEDIIS/GDIIS optimizer.
 FormGI is forming the generalized inverse of G from B-inverse, IUseBI=4.
 Internal  Forces:  Max     0.005159024 RMS     0.001224056
 Search for a local minimum.
 Step number   2 out of a maximum of   88
 All quantities printed in internal units (Hartrees-Bohrs-Radians)
 Mixed Optimization -- RFO/linear search
 Update second derivatives using D2CorX and points    1    2
 DE= -3.98D-03 DEPred=-4.02D-03 R= 9.90D-01
 TightC=F SS=  1.41D+00  RLast= 5.28D-01 DXNew= 5.0454D-01 1.5849D+00
 Trust test= 9.90D-01 RLast= 5.28D-01 DXMaxT set to 5.05D-01
 ITU=  1  0
 Use linear search instead of GDIIS.
     Eigenvalues ---    0.00242   0.01056   0.01179   0.01742   0.01753
     Eigenvalues ---    0.01854   0.01965   0.02113   0.02145   0.02332
     Eigenvalues ---    0.02420   0.02481   0.02785   0.07477   0.07496
     Eigenvalues ---    0.14486   0.15999   0.16000   0.16000   0.16000
     Eigenvalues ---    0.16006   0.18013   0.22481   0.24207   0.24940
     Eigenvalues ---    0.24974   0.25000   0.25000   0.25000   0.25363
     Eigenvalues ---    0.28634   0.34214   0.34214   0.34532   0.34802
     Eigenvalues ---    0.35824   0.40061   0.44951   0.45570   0.47353
     Eigenvalues ---    0.50243   0.51178   0.53813   0.54257   0.61502
     Eigenvalues ---    0.61828   0.96967   1.01980
 RFO step:  Lambda=-3.64318690D-03 EMin= 2.41749143D-03
 Quartic linear search produced a step of  0.29869.
 Iteration  1 RMS(Cart)=  0.06463103 RMS(Int)=  0.02986207
 Iteration  2 RMS(Cart)=  0.03660754 RMS(Int)=  0.00258327
 Iteration  3 RMS(Cart)=  0.00196508 RMS(Int)=  0.00143178
 Iteration  4 RMS(Cart)=  0.00000327 RMS(Int)=  0.00143178
 Iteration  5 RMS(Cart)=  0.00000001 RMS(Int)=  0.00143178
 Variable       Old X    -DE/DX   Delta X   Delta X   Delta X     New X
                                 (Linear)    (Quad)   (Total)
    R1        2.54249  -0.00018   0.00181   0.00095   0.00276   2.54525
    R2        2.57113   0.00024   0.00065   0.00089   0.00153   2.57266
    R3        2.79252   0.00038  -0.00017   0.00114   0.00097   2.79348
    R4        2.61558  -0.00026  -0.00199  -0.00211  -0.00410   2.61148
    R5        2.68355  -0.00025  -0.00042  -0.00095  -0.00137   2.68218
    R6        2.47923   0.00130  -0.00089   0.00181   0.00092   2.48016
    R7        2.62039   0.00020  -0.00189  -0.00098  -0.00288   2.61751
    R8        2.03947  -0.00019  -0.00120  -0.00156  -0.00276   2.03671
    R9        2.06410   0.00012  -0.00010   0.00031   0.00021   2.06431
   R10        2.06997  -0.00002   0.00008  -0.00000   0.00008   2.07005
   R11        2.07000  -0.00002   0.00008  -0.00001   0.00008   2.07007
   R12        1.92087   0.00017   0.00016   0.00056   0.00072   1.92159
   R13        2.56910   0.00104   0.00247   0.00417   0.00665   2.57575
   R14        2.29243  -0.00147  -0.00157  -0.00300  -0.00457   2.28786
   R15        2.89893   0.00015  -0.00293  -0.00168  -0.00461   2.89432
   R16        2.28423   0.00004   0.00170   0.00139   0.00309   2.28732
   R17        2.50513   0.00030   0.00289   0.00284   0.00573   2.51086
   R18        1.83661  -0.00080  -0.00461  -0.00542  -0.01003   1.82657
    A1        1.92137  -0.00045   0.00321  -0.00024   0.00296   1.92433
    A2        2.03037   0.00053  -0.00199   0.00121  -0.00078   2.02960
    A3        2.33144  -0.00008  -0.00121  -0.00097  -0.00218   2.32926
    A4        1.91667   0.00016  -0.00327  -0.00213  -0.00540   1.91127
    A5        1.97633  -0.00123   0.00154  -0.00422  -0.00268   1.97365
    A6        2.22757   0.00516   0.01792   0.03736   0.05527   2.28284
    A7        2.07927  -0.00393  -0.01946  -0.03315  -0.05262   2.02665
    A8        1.78743   0.00100  -0.00325   0.00234  -0.00091   1.78653
    A9        2.25485  -0.00008   0.00457   0.00407   0.00864   2.26349
   A10        2.24091  -0.00093  -0.00133  -0.00642  -0.00775   2.23315
   A11        1.82297   0.00052   0.00177   0.00427   0.00603   1.82900
   A12        1.92229   0.00012  -0.00128  -0.00009  -0.00137   1.92092
   A13        1.93375   0.00001   0.00056   0.00051   0.00107   1.93482
   A14        1.93349   0.00001   0.00050   0.00043   0.00093   1.93442
   A15        1.89760  -0.00007   0.00009  -0.00043  -0.00033   1.89726
   A16        1.89740  -0.00008   0.00004  -0.00053  -0.00049   1.89691
   A17        1.87815  -0.00000   0.00011   0.00008   0.00019   1.87834
   A18        2.04738   0.00003  -0.00316  -0.00461  -0.00804   2.03934
   A19        2.19857  -0.00236  -0.00873  -0.01913  -0.02815   2.17041
   A20        2.03641   0.00232   0.01165   0.02284   0.03417   2.07058
   A21        2.21876  -0.00210  -0.00747  -0.01062  -0.02146   2.19730
   A22        1.93738  -0.00112  -0.00349  -0.00354  -0.01048   1.92690
   A23        2.12372   0.00343   0.00996   0.02731   0.03373   2.15745
   A24        2.14982  -0.00079   0.00075   0.00059  -0.00479   2.14503
   A25        1.94697   0.00145  -0.00133   0.00962   0.00216   1.94913
   A26        2.18465  -0.00050   0.00006   0.00204  -0.00407   2.18058
   A27        1.87498   0.00026   0.00259   0.00378   0.00637   1.88135
    D1        0.00199  -0.00010   0.00060  -0.00459  -0.00394  -0.00195
    D2       -3.13925  -0.00005   0.00064  -0.00182  -0.00114  -3.14039
    D3       -0.00015   0.00003  -0.00005   0.00149   0.00142   0.00128
    D4       -3.14096   0.00014   0.00022   0.00652   0.00672  -3.13424
    D5        3.14101  -0.00003  -0.00010  -0.00194  -0.00204   3.13898
    D6        0.00020   0.00008   0.00018   0.00309   0.00326   0.00346
    D7       -3.14054  -0.00003   0.00002  -0.00157  -0.00154   3.14110
    D8       -1.04034  -0.00003  -0.00034  -0.00184  -0.00217  -1.04250
    D9        1.04285  -0.00002   0.00049  -0.00112  -0.00062   1.04222
   D10        0.00151   0.00003   0.00007   0.00202   0.00208   0.00358
   D11        2.10171   0.00003  -0.00029   0.00176   0.00145   2.10317
   D12       -2.09829   0.00004   0.00054   0.00247   0.00300  -2.09529
   D13       -0.00304   0.00013  -0.00091   0.00574   0.00479   0.00175
   D14       -0.00189   0.00006  -0.00056   0.00230   0.00172  -0.00016
   D15        3.13893  -0.00005  -0.00083  -0.00266  -0.00343   3.13550
   D16        3.13367   0.00001  -0.00234  -0.00076  -0.00327   3.13040
   D17       -0.00869  -0.00010  -0.00261  -0.00573  -0.00843  -0.01712
   D18        0.00303  -0.00012   0.00090  -0.00492  -0.00398  -0.00095
   D19       -3.13309  -0.00011   0.00251  -0.00240  -0.00015  -3.13325
   D20       -3.13476  -0.00047  -0.01055  -0.02931  -0.03957   3.10885
   D21        0.05209  -0.00012   0.00310  -0.00521  -0.00245   0.04964
   D22        0.00049  -0.00051  -0.01242  -0.03243  -0.04453  -0.04404
   D23       -3.09585  -0.00016   0.00122  -0.00833  -0.00740  -3.10325
   D24        0.05283  -0.00161   0.01569  -0.09406  -0.07756  -0.02473
   D25        3.10726   0.00122  -0.01035   0.07945   0.06770  -3.10823
   D26       -3.04376  -0.00121   0.02925  -0.06947  -0.03882  -3.08257
   D27        0.01067   0.00162   0.00322   0.10404   0.10644   0.11711
   D28       -0.37816   0.00154   0.07559   0.24130   0.31558  -0.06258
   D29        2.82396  -0.00123   0.09364   0.02906   0.12192   2.94589
   D30        2.68178   0.00389   0.05121   0.40176   0.45374   3.13552
   D31       -0.39928   0.00112   0.06925   0.18951   0.26009  -0.13920
   D32        3.08908   0.00139  -0.01565   0.10436   0.08848  -3.10562
   D33        0.00947  -0.00143   0.00283  -0.11292  -0.10986  -0.10039
         Item               Value     Threshold  Converged?
 Maximum Force            0.005159     0.000450     NO 
 RMS     Force            0.001224     0.000300     NO 
 Maximum Displacement     0.655970     0.001800     NO 
 RMS     Displacement     0.096775     0.001200     NO 
 Predicted change in Energy=-2.761019D-03
 GradGradGradGradGradGradGradGradGradGradGradGradGradGradGradGradGradGrad

                          Input orientation:                          
 ---------------------------------------------------------------------
 Center     Atomic      Atomic             Coordinates (Angstroms)
 Number     Number       Type             X           Y           Z
 ---------------------------------------------------------------------
      1          6           0        2.963020    0.248302   -0.017540
      2          8           0        2.529181   -1.023733   -0.106009
      3          6           0        0.796477    0.222112   -0.041927
      4          6           0        1.905792    1.104859    0.026812
      5          1           0        1.893788    2.180642    0.091245
      6          7           0        1.147415   -1.040120   -0.120125
      7          6           0        4.428583    0.439924    0.007395
      8          1           0        4.666210    1.503690    0.079838
      9          1           0        4.875252   -0.078844    0.862565
     10          1           0        4.889514    0.038486   -0.901653
     11          7           0       -0.564970    0.476755   -0.027947
     12          1           0       -1.183145   -0.325496   -0.118841
     13          6           0       -1.113933    1.723889    0.005820
     14          8           0       -0.502288    2.767676    0.052265
     15          6           0       -2.641900    1.633409    0.060165
     16          8           0       -3.240643    0.582840    0.006556
     17          8           0       -3.193843    2.810715    0.333537
     18          1           0       -4.150514    2.683253    0.386566
 ---------------------------------------------------------------------
                    Distance matrix (angstroms):
                    1          2          3          4          5
     1  C    0.000000
     2  O    1.346891   0.000000
     3  C    2.166838   2.135065   0.000000
     4  C    1.361392   2.221972   1.419347   0.000000
     5  H    2.211116   3.272714   2.248925   1.077778   0.000000
     6  N    2.228671   1.381936   1.312442   2.279838   3.312863
     7  C    1.478248   2.400600   3.638965   2.609021   3.076088
     8  H    2.118098   3.315011   4.078247   2.789585   2.853896
     9  H    2.130315   2.708321   4.188685   3.304139   3.819600
    10  H    2.130037   2.707864   4.186383   3.301787   3.814323
    11  N    3.535394   3.439670   1.385127   2.549937   2.993815
    12  H    4.186906   3.777441   2.055406   3.407148   3.973962
    13  C    4.335834   4.564452   2.430490   3.082593   3.043404
    14  O    4.284913   4.856917   2.859293   2.926510   2.467247
    15  C    5.774053   5.816193   3.718147   4.578425   4.568686
    16  O    6.212723   5.990377   4.053494   5.172881   5.377966
    17  O    6.678037   6.902840   4.771215   5.386121   5.132220
    18  H    7.529586   7.655241   5.541980   6.268939   6.072349
                    6          7          8          9         10
     6  N    0.000000
     7  C    3.601785   0.000000
     8  H    4.346593   1.092388   0.000000
     9  H    3.973223   1.095422   1.777857   0.000000
    10  H    3.972088   1.095435   1.777642   1.768173   0.000000
    11  N    2.289469   4.993814   5.332116   5.540553   5.541375
    12  H    2.437662   5.665094   6.131912   6.142326   6.133715
    13  C    3.573416   5.689293   5.784810   6.313019   6.301228
    14  O    4.153378   5.452883   5.320883   6.138176   6.118004
    15  C    4.641031   7.170699   7.309288   7.751338   7.758290
    16  O    4.680288   7.670557   7.960632   8.187694   8.198818
    17  O    5.820761   7.989268   7.972021   8.587184   8.634328
    18  H    6.495252   8.875653   8.900567   9.450938   9.506651
                   11         12         13         14         15
    11  N    0.000000
    12  H    1.016861   0.000000
    13  C    1.363028   2.054339   0.000000
    14  O    2.293182   3.171837   1.210685   0.000000
    15  C    2.378918   2.448942   1.531608   2.421686   0.000000
    16  O    2.677997   2.252575   2.413480   3.503453   1.210397
    17  O    3.533980   3.752782   2.369517   2.706554   1.328692
    18  H    4.230435   4.255971   3.207206   3.664483   1.866716
                   16         17         18
    16  O    0.000000
    17  O    2.252228   0.000000
    18  H    2.320347   0.966581   0.000000
 Stoichiometry    C6H6N2O4
 Framework group  C1[X(C6H6N2O4)]
 Deg. of freedom    48
 Full point group                 C1      NOp   1
 Largest Abelian subgroup         C1      NOp   1
 Largest concise Abelian subgroup C1      NOp   1
                         Standard orientation:                         
 ---------------------------------------------------------------------
 Center     Atomic      Atomic             Coordinates (Angstroms)
 Number     Number       Type             X           Y           Z
 ---------------------------------------------------------------------
      1          6           0        2.814454    0.263801    0.021677
      2          8           0        2.791394   -1.082892    0.023124
      3          6           0        0.760435   -0.425359   -0.013731
      4          6           0        1.545731    0.756897   -0.002565
      5          1           0        1.204779    1.779230   -0.016419
      6          7           0        1.481256   -1.522024    0.001951
      7          6           0        4.150686    0.895711    0.041430
      8          1           0        4.050834    1.983521    0.037933
      9          1           0        4.710136    0.597157    0.934643
     10          1           0        4.737159    0.594317   -0.833321
     11          7           0       -0.613707   -0.598991   -0.026423
     12          1           0       -0.955314   -1.556073   -0.062580
     13          6           0       -1.517222    0.419780   -0.086511
     14          8           0       -1.254175    1.601263   -0.112246
     15          6           0       -2.945888   -0.129832   -0.034905
     16          8           0       -3.194386   -1.314291   -0.015746
     17          8           0       -3.837648    0.837824    0.149024
     18          1           0       -4.711104    0.427737    0.205424
 ---------------------------------------------------------------------
 Rotational constants (GHZ):           2.9654637           0.4424962           0.3864192
 Standard basis: 6-31+G(d,p) (6D, 7F)
 There are   258 symmetry adapted cartesian basis functions of A   symmetry.
 There are   258 symmetry adapted basis functions of A   symmetry.
   258 basis functions,   426 primitive gaussians,   258 cartesian basis functions
    44 alpha electrons       44 beta electrons
       nuclear repulsion energy       676.9829138296 Hartrees.
 NAtoms=   18 NActive=   18 NUniq=   18 SFac= 1.00D+00 NAtFMM=   60 NAOKFM=F Big=F
 Integral buffers will be    131072 words long.
 Raffenetti 2 integral format.
 Two-electron integral symmetry is turned on.
 One-electron integrals computed using PRISM.
 NBasis=   258 RedAO= T EigKep=  7.68D-06  NBF=   258
 NBsUse=   258 1.00D-06 EigRej= -1.00D+00 NBFU=   258
 Initial guess from the checkpoint file:  "/home/user/SOFTWARE/gauss/scratch/Gau-31780.chk"
 B after Tr=     0.000000    0.000000   -0.000000
         Rot=    0.999999    0.000082    0.000255    0.001118 Ang=   0.13 deg.
 ExpMin= 4.38D-02 ExpMax= 5.48D+03 ExpMxC= 8.25D+02 IAcc=3 IRadAn=         5 AccDes= 0.00D+00
 Harris functional with IExCor= 1009 and IRadAn=       5 diagonalized for initial guess.
 HarFok:  IExCor= 1009 AccDes= 0.00D+00 IRadAn=         5 IDoV= 1 UseB2=F ITyADJ=14
 ICtDFT=  3500011 ScaDFX=  1.000000  1.000000  1.000000  1.000000
 FoFCou: FMM=F IPFlag=           0 FMFlag=      100000 FMFlg1=           0
         NFxFlg=           0 DoJE=T BraDBF=F KetDBF=T FulRan=T
         wScrn=  0.000000 ICntrl=       500 IOpCl=  0 I1Cent=   200000004 NGrid=           0
         NMat0=    1 NMatS0=      1 NMatT0=    0 NMatD0=    1 NMtDS0=    0 NMtDT0=    0
 Petite list used in FoFCou.
 Requested convergence on RMS density matrix=1.00D-08 within 128 cycles.
 Requested convergence on MAX density matrix=1.00D-06.
 Requested convergence on             energy=1.00D-06.
 No special actions if energy rises.
 SCF Done:  E(RM06) =  -642.306229436     A.U. after   14 cycles
            NFock= 14  Conv=0.62D-08     -V/T= 2.0096
 Calling FoFJK, ICntrl=      2127 FMM=F ISym2X=0 I1Cent= 0 IOpClX= 0 NMat=1 NMatS=1 NMatT=0.
 ***** Axes restored to original set *****
 -------------------------------------------------------------------
 Center     Atomic                   Forces (Hartrees/Bohr)
 Number     Number              X              Y              Z
 -------------------------------------------------------------------
      1        6           0.001574666   -0.001369750   -0.000387757
      2        8           0.000069240    0.003144978    0.000344228
      3        6          -0.001994830   -0.002466949   -0.000029915
      4        6          -0.001609723   -0.002533701   -0.000301404
      5        1           0.000541024    0.000755162    0.000202031
      6        7           0.003179771   -0.003256871   -0.000267813
      7        6          -0.000019529    0.000492982    0.000045020
      8        1           0.000218638    0.000054809    0.000025156
      9        1          -0.000083186    0.000029141   -0.000006784
     10        1          -0.000081631    0.000011880    0.000022492
     11        7          -0.000842951    0.005545372   -0.003199117
     12        1          -0.000590197    0.000788645    0.001485604
     13        6           0.001543985   -0.003634792    0.000802407
     14        8          -0.000180962    0.002544462   -0.000934602
     15        6          -0.002520086   -0.001667373    0.014513616
     16        8           0.000130958    0.002913604   -0.006146253
     17        8           0.004694646   -0.000196221   -0.007083560
     18        1          -0.004029834   -0.001155377    0.000916650
 -------------------------------------------------------------------
 Cartesian Forces:  Max     0.014513616 RMS     0.002984266

 GradGradGradGradGradGradGradGradGradGradGradGradGradGradGradGradGradGrad
 Berny optimization.
 Using GEDIIS/GDIIS optimizer.
 FormGI is forming the generalized inverse of G from B-inverse, IUseBI=4.
 Internal  Forces:  Max     0.006362709 RMS     0.001829860
 Search for a local minimum.
 Step number   3 out of a maximum of   88
 All quantities printed in internal units (Hartrees-Bohrs-Radians)
 Mixed Optimization -- RFO/linear search
 Update second derivatives using D2CorX and points    2    3
 DE= -2.78D-04 DEPred=-2.76D-03 R= 1.01D-01
 Trust test= 1.01D-01 RLast= 6.67D-01 DXMaxT set to 5.05D-01
 ITU=  0  1  0
 Use linear search instead of GDIIS.
     Eigenvalues ---    0.00271   0.01056   0.01282   0.01743   0.01812
     Eigenvalues ---    0.01949   0.02076   0.02142   0.02332   0.02346
     Eigenvalues ---    0.02433   0.02762   0.04617   0.07466   0.07502
     Eigenvalues ---    0.14755   0.15998   0.16000   0.16000   0.16002
     Eigenvalues ---    0.16010   0.18337   0.22533   0.24232   0.24876
     Eigenvalues ---    0.24977   0.25000   0.25000   0.25040   0.25293
     Eigenvalues ---    0.28650   0.34214   0.34214   0.34532   0.34798
     Eigenvalues ---    0.35830   0.40073   0.44954   0.45575   0.47418
     Eigenvalues ---    0.50249   0.51423   0.53809   0.54306   0.61462
     Eigenvalues ---    0.61957   0.97040   1.02036
 RFO step:  Lambda=-1.51998819D-03 EMin= 2.71371908D-03
 Quartic linear search produced a step of -0.45892.
 Iteration  1 RMS(Cart)=  0.06769687 RMS(Int)=  0.00410175
 Iteration  2 RMS(Cart)=  0.00565409 RMS(Int)=  0.00096315
 Iteration  3 RMS(Cart)=  0.00002858 RMS(Int)=  0.00096295
 Iteration  4 RMS(Cart)=  0.00000005 RMS(Int)=  0.00096295
 Variable       Old X    -DE/DX   Delta X   Delta X   Delta X     New X
                                 (Linear)    (Quad)   (Total)
    R1        2.54525  -0.00198  -0.00127  -0.00242  -0.00368   2.54157
    R2        2.57266  -0.00023  -0.00070  -0.00025  -0.00095   2.57170
    R3        2.79348   0.00011  -0.00044   0.00108   0.00064   2.79412
    R4        2.61148   0.00075   0.00188   0.00066   0.00254   2.61402
    R5        2.68218  -0.00026   0.00063  -0.00060   0.00004   2.68221
    R6        2.48016   0.00339  -0.00042   0.00472   0.00430   2.48445
    R7        2.61751   0.00271   0.00132   0.00333   0.00465   2.62216
    R8        2.03671   0.00076   0.00127   0.00070   0.00197   2.03867
    R9        2.06431   0.00010  -0.00010   0.00043   0.00033   2.06465
   R10        2.07005  -0.00005  -0.00004  -0.00013  -0.00016   2.06988
   R11        2.07007  -0.00006  -0.00004  -0.00014  -0.00018   2.06989
   R12        1.92159  -0.00040  -0.00033  -0.00014  -0.00047   1.92112
   R13        2.57575  -0.00090  -0.00305   0.00055  -0.00250   2.57325
   R14        2.28786   0.00207   0.00210  -0.00007   0.00203   2.28989
   R15        2.89432   0.00181   0.00211   0.00377   0.00589   2.90020
   R16        2.28732  -0.00232  -0.00142  -0.00123  -0.00264   2.28468
   R17        2.51086  -0.00275  -0.00263  -0.00202  -0.00465   2.50621
   R18        1.82657   0.00419   0.00460   0.00311   0.00772   1.83429
    A1        1.92433  -0.00095  -0.00136  -0.00510  -0.00645   1.91787
    A2        2.02960   0.00104   0.00036   0.00468   0.00504   2.03463
    A3        2.32926  -0.00009   0.00100   0.00042   0.00142   2.33068
    A4        1.91127   0.00153   0.00248   0.00304   0.00551   1.91678
    A5        1.97365  -0.00204   0.00123  -0.00743  -0.00619   1.96746
    A6        2.28284  -0.00432  -0.02536   0.00645  -0.01891   2.26392
    A7        2.02665   0.00636   0.02415   0.00098   0.02513   2.05178
    A8        1.78653   0.00210   0.00042   0.00785   0.00827   1.79480
    A9        2.26349  -0.00161  -0.00397  -0.00377  -0.00773   2.25576
   A10        2.23315  -0.00049   0.00356  -0.00410  -0.00055   2.23261
   A11        1.82900  -0.00064  -0.00277   0.00163  -0.00114   1.82786
   A12        1.92092   0.00033   0.00063   0.00185   0.00249   1.92340
   A13        1.93482  -0.00014  -0.00049  -0.00048  -0.00097   1.93385
   A14        1.93442  -0.00012  -0.00043  -0.00040  -0.00083   1.93359
   A15        1.89726  -0.00009   0.00015  -0.00059  -0.00043   1.89683
   A16        1.89691  -0.00007   0.00023  -0.00049  -0.00026   1.89665
   A17        1.87834   0.00007  -0.00009   0.00005  -0.00004   1.87830
   A18        2.03934   0.00007   0.00369  -0.00025   0.00348   2.04283
   A19        2.17041   0.00170   0.01292  -0.00422   0.00875   2.17917
   A20        2.07058  -0.00174  -0.01568   0.00447  -0.01116   2.05942
   A21        2.19730   0.00154   0.00985  -0.00489   0.00630   2.20360
   A22        1.92690   0.00022   0.00481  -0.00466   0.00156   1.92846
   A23        2.15745  -0.00165  -0.01548   0.00532  -0.00869   2.14876
   A24        2.14503   0.00078   0.00220   0.00280   0.00042   2.14545
   A25        1.94913   0.00060  -0.00099   0.01050   0.00494   1.95407
   A26        2.18058  -0.00036   0.00187   0.00268  -0.00003   2.18054
   A27        1.88135  -0.00085  -0.00292  -0.00153  -0.00446   1.87689
    D1       -0.00195   0.00005   0.00181  -0.00249  -0.00069  -0.00264
    D2       -3.14039  -0.00000   0.00052  -0.00180  -0.00130   3.14150
    D3        0.00128  -0.00004  -0.00065   0.00010  -0.00056   0.00072
    D4       -3.13424  -0.00006  -0.00308   0.00321   0.00012  -3.13412
    D5        3.13898   0.00002   0.00093  -0.00074   0.00019   3.13917
    D6        0.00346   0.00000  -0.00150   0.00238   0.00087   0.00433
    D7        3.14110   0.00005   0.00071  -0.00015   0.00055  -3.14153
    D8       -1.04250   0.00007   0.00099   0.00002   0.00101  -1.04149
    D9        1.04222  -0.00001   0.00029  -0.00050  -0.00021   1.04201
   D10        0.00358  -0.00002  -0.00095   0.00074  -0.00022   0.00337
   D11        2.10317   0.00000  -0.00067   0.00091   0.00024   2.10340
   D12       -2.09529  -0.00008  -0.00137   0.00039  -0.00099  -2.09628
   D13        0.00175  -0.00003  -0.00220   0.00390   0.00172   0.00347
   D14       -0.00016   0.00002  -0.00079   0.00251   0.00173   0.00156
   D15        3.13550   0.00004   0.00158  -0.00053   0.00103   3.13652
   D16        3.13040   0.00014   0.00150   0.00335   0.00489   3.13529
   D17       -0.01712   0.00015   0.00387   0.00032   0.00419  -0.01294
   D18       -0.00095   0.00001   0.00183  -0.00395  -0.00212  -0.00308
   D19       -3.13325  -0.00003   0.00007  -0.00471  -0.00459  -3.13784
   D20        3.10885   0.00021   0.01816  -0.01144   0.00664   3.11549
   D21        0.04964  -0.00023   0.00112  -0.01155  -0.01036   0.03928
   D22       -0.04404   0.00029   0.02043  -0.01062   0.00975  -0.03429
   D23       -3.10325  -0.00016   0.00340  -0.01072  -0.00725  -3.11050
   D24       -0.02473   0.00054   0.03559  -0.05635  -0.02135  -0.04608
   D25       -3.10823  -0.00147  -0.03107   0.02331  -0.00703  -3.11525
   D26       -3.08257   0.00001   0.01781  -0.05624  -0.03915  -3.12172
   D27        0.11711  -0.00200  -0.04885   0.02342  -0.02483   0.09228
   D28       -0.06258  -0.00262  -0.14482   0.13136  -0.01272  -0.07530
   D29        2.94589   0.00533  -0.05595   0.25687   0.20145  -3.13585
   D30        3.13552  -0.00471  -0.20823   0.20925   0.00049   3.13600
   D31       -0.13920   0.00325  -0.11936   0.33475   0.21465   0.07545
   D32       -3.10562  -0.00343  -0.04061  -0.05193  -0.09240   3.08516
   D33       -0.10039   0.00482   0.05042   0.07666   0.12694   0.02655
         Item               Value     Threshold  Converged?
 Maximum Force            0.006363     0.000450     NO 
 RMS     Force            0.001830     0.000300     NO 
 Maximum Displacement     0.360993     0.001800     NO 
 RMS     Displacement     0.068494     0.001200     NO 
 Predicted change in Energy=-1.751404D-03
 GradGradGradGradGradGradGradGradGradGradGradGradGradGradGradGradGradGrad

                          Input orientation:                          
 ---------------------------------------------------------------------
 Center     Atomic      Atomic             Coordinates (Angstroms)
 Number     Number       Type             X           Y           Z
 ---------------------------------------------------------------------
      1          6           0        2.967415    0.243073   -0.030228
      2          8           0        2.542205   -1.027930   -0.142532
      3          6           0        0.794280    0.195920   -0.025750
      4          6           0        1.899674    1.083133    0.048780
      5          1           0        1.882152    2.158046    0.138827
      6          7           0        1.159361   -1.062159   -0.137246
      7          6           0        4.431060    0.452487   -0.020044
      8          1           0        4.659297    1.516728    0.074821
      9          1           0        4.894619   -0.081643    0.816364
     10          1           0        4.883791    0.077819   -0.944398
     11          7           0       -0.565701    0.468903    0.010725
     12          1           0       -1.198447   -0.321347   -0.082196
[...]
 ,-0.1169435,-0.0459411,-0.0030237,0.0588903,0.0526365,-0.0021165,0.006
 2623,-0.0015793,0.0740742,0.0378847,0.025003,0.0024426,-0.0714338,-0.0
 62956,-0.013621,-0.0058712,-0.0140682,0.0984762,-0.0161278,0.0027528,-
 0.0176547,0.0239635,0.0557882,0.0713319,-0.0783476,0.062941,0.0075637,
 -0.0153614,-0.0008473,0.0179431,0.0096011,0.0769888,-0.0593754,0.08128
 14,-0.0508741,-0.0145627,-1.222026,0.6361517,0.0581093,0.4876597,-0.95
 21858,-0.0574914,0.0455694,-0.0582413,-0.3031677,0.2967665,0.0448946,0
 .0037181,0.0363637,0.2351454,-0.0045032,0.0030274,-0.0045796,0.2861407
 ,0.8509583,0.0420892,0.0008212,-0.7239807,1.7988932,0.1284743,-0.06378
 52,0.1248071,0.3248836,-0.5789143,-0.3844297,-0.031217,0.2546346,-1.13
 02607,-0.0662849,0.0225579,-0.0631363,-0.3624444,1.3973895,-0.316144,-
 0.0318287,-0.2951718,1.7722456,0.1203647,-0.0301039,0.1205101,0.370959
 9,-1.0160314,-0.210196,-0.0144733,-0.0703329,-0.9690627,-0.0500529,-0.
 0026473,-0.0493363,-0.3746347,-0.8141202,0.6254966,0.0549439,0.4547453
 ,-1.0919656,-0.0637116,0.0406217,-0.0646357,-0.3681432,0.3600034,-0.11
 50421,-0.0097005,-0.1041512,0.2976738,-0.0045438,-0.0087949,-0.0044802
 ,0.357443\Polar=132.3741836,-13.2901269,101.9183264,-1.4899984,3.96608
 05,56.0536073\Quadrupole=14.0292036,-11.6601067,-2.3690969,-2.1006349,
 -0.2536954,-0.7788365\PG=C01 [X(C6H6N2O4)]\NImag=0\\0.84354844,-0.0673
 4428,0.59071319,-0.00880274,0.03535278,0.18055851,-0.11357535,-0.05034
 191,-0.00405042,0.42667241,-0.01782420,-0.27228619,-0.01729355,-0.0116
 5421,0.49381996,-0.00129772,-0.01715217,-0.06888304,-0.00255193,0.0345
 3734,0.09035687,-0.06450157,0.02829223,0.00272594,-0.07169416,0.034040
 24,0.00324593,0.80779631,-0.03078753,0.06893583,0.00548842,0.03053727,
 -0.06153812,-0.00588242,-0.04954448,0.72144641,-0.00228699,0.00522165,
 0.00634674,0.00294715,-0.00589402,0.00552906,-0.00725147,0.04791928,0.
 16310794,-0.30773411,0.14159064,0.01312849,-0.00178428,0.04781676,0.00
 413403,-0.20806756,-0.06556702,-0.00489293,0.60322558,0.16502387,-0.22
 782645,-0.01458538,-0.00600596,-0.08445850,-0.00840992,-0.10582640,-0.
 19001727,-0.01015335,-0.06669550,0.89592760,0.01511066,-0.01447425,-0.
 06611713,-0.00043249,-0.00866013,0.01427671,-0.00831706,-0.01033661,-0
 .06535074,-0.00794622,0.06717009,0.11292124,0.00731402,0.02047885,0.00
 168923,-0.00371298,0.00565699,0.00053651,0.00904279,-0.02240311,-0.001
 95232,-0.05059549,0.00467774,0.00051199,0.04350651,-0.00519824,-0.0046
 7943,-0.00012507,-0.00026796,0.00016990,-0.00071188,0.00495938,-0.0052
 4873,-0.00024831,0.00228615,-0.36579142,-0.02886156,-0.00404568,0.3773
 4931,-0.00048837,-0.00024606,-0.00294303,0.00003581,-0.00074078,0.0085
 3449,0.00036456,-0.00012461,-0.00260212,0.00031160,-0.02886383,-0.0277
 1220,-0.00044370,0.03015264,0.02421992,-0.06929598,-0.05270564,-0.0040
 9909,-0.21012369,-0.05271443,-0.00377998,-0.12437348,0.09468059,0.0083
 0784,0.01446340,0.00895178,0.00079135,-0.00462263,-0.00001780,0.000041
 30,0.42031027,-0.02829810,-0.05621636,-0.00577385,0.07362681,-0.065455
 87,-0.00083506,0.04723806,-0.40796453,-0.02925949,-0.05701624,-0.05616
 215,-0.00629304,-0.00516632,-0.00082757,-0.00046675,-0.04854733,0.5959
 0248,-0.00202185,-0.00565842,0.01289012,0.00694086,-0.00025852,-0.0596
 1148,0.00428528,-0.02947965,-0.06809633,-0.00480558,-0.00659236,0.0205
 0446,-0.00039437,-0.00048970,0.00491390,-0.00568146,0.04379389,0.08608
 416,-0.25823095,-0.01895545,-0.00072517,-0.01277958,-0.01069217,-0.000
 85185,-0.00085134,0.00153032,0.00016899,-0.01577536,-0.00454256,-0.000
 27278,0.00099388,-0.00015391,-0.00003174,0.00127183,0.00038181,0.00004
 272,0.52192366,-0.01267184,-0.08405669,-0.00112686,-0.04771100,-0.0095
 2497,-0.00050001,0.00277167,-0.00527787,-0.00113167,0.01688087,0.01045
 968,0.00014508,-0.00023909,0.00030009,0.00029588,0.00213180,-0.0038762
 0,-0.00065627,0.00009315,0.58606742,-0.00020044,-0.00109326,-0.0701048
 3,-0.00401062,-0.00068061,-0.00105790,0.00027037,-0.00111725,0.0077455
 0,0.00154208,0.00024310,0.00778443,-0.00003755,0.00029188,-0.00311380,
 0.00020485,-0.00065182,0.00374247,0.00012977,0.00366932,0.54315270,-0.
 00233392,-0.03432350,-0.00294598,-0.00805323,-0.00012983,0.00002637,0.
 00051634,-0.00101426,-0.00009083,0.00146424,0.00092463,0.00007289,-0.0
 0037444,0.00046618,0.00004266,-0.00071794,-0.00104491,-0.00007865,-0.0
 5783042,-0.05186236,-0.00439596,0.06246530,0.00162938,-0.00348279,-0.0
 0007939,-0.00095426,0.00117220,0.00004467,0.00003424,-0.00040652,-0.00
 000078,0.00045977,0.00073479,0.00008494,-0.00043246,-0.00011524,-0.000
 04035,0.00051688,0.00031394,-0.00005195,-0.05624976,-0.31121775,-0.022
 71507,0.06062964,0.33205310,0.00014274,0.00009271,-0.00262030,-0.00003
 506,0.00004551,0.00068006,-0.00000098,0.00000212,-0.00038082,0.0000306
 4,0.00008228,-0.00026741,-0.00003389,-0.00004320,0.00036532,0.00004981
 ,-0.00004291,0.00088138,-0.00477409,-0.02273879,-0.04570290,0.00511326
 ,0.02459843,0.04456079,-0.01812960,0.01785415,-0.02566941,0.00381487,0
 .00148370,0.00041502,-0.00023748,-0.00004455,0.00139211,-0.00152293,-0
 .00229370,0.00016226,0.00009202,-0.00000055,-0.00040510,-0.00230236,-0
 .00028725,0.00078765,-0.09015366,0.05332135,-0.08787059,0.00243818,-0.
 00334289,0.00654649,0.10076441,-0.00062139,0.00182077,-0.00591723,0.00
 090917,0.00049205,0.00018329,-0.00003234,-0.00036289,-0.00043369,-0.00
 012411,0.00064164,0.00033703,-0.00013668,0.00001270,0.00026575,-0.0011
 4208,0.00003600,0.00048377,0.05270307,-0.10816448,0.10215313,0.0130039
 0,-0.01151223,0.02309004,-0.05941589,0.11169196,0.00013072,-0.00198732
 ,0.00247381,0.00015796,0.00041580,0.00045823,0.00030334,-0.00024726,-0
 .00032521,0.00097870,-0.00018806,-0.00041663,-0.00000999,-0.00003409,0
 .00020011,-0.00075587,-0.00024289,-0.00001883,-0.08707076,0.10253323,-
 0.20448142,0.00274497,-0.00304259,0.00314869,0.09467895,-0.11081615,0.
 21762094,-0.01787318,0.01320410,0.02853696,0.00380691,0.00153344,-0.00
 018771,-0.00025084,0.00018662,-0.00138144,-0.00152728,-0.00222441,-0.0
 0053873,0.00009511,-0.00006833,0.00040094,-0.00230886,-0.00014936,-0.0
 0080601,-0.08838260,0.03675376,0.09432446,0.00235676,-0.00215676,-0.00
 702711,0.00549980,-0.00525645,-0.01123903,0.09884782,-0.00055245,0.000
 52492,0.00560895,0.00092279,0.00058993,-0.00016949,0.00002250,-0.00047
 800,0.00040853,0.00004582,0.00063465,-0.00015393,-0.00013820,0.0000561
 5,-0.00029028,-0.00126124,0.00007490,-0.00045999,0.03627859,-0.0764710
 3,-0.08025529,0.01304714,-0.00770715,-0.02510645,-0.00696658,0.0053281
 0,0.01359379,-0.04152252,0.07742337,-0.00002172,0.00152133,0.00351664,
 -0.00003150,-0.00040681,0.00036080,-0.00030145,0.00022162,-0.00019763,
 -0.00097793,0.00039146,-0.00039762,-0.00001319,0.00001034,0.00015232,0
 .00057055,0.00025836,-0.00005570,0.09341744,-0.08064286,-0.23790789,-0
 .00051384,0.00117995,-0.00057944,0.00995103,-0.00937210,-0.01870034,-0
 .10202204,0.08685437,0.25377451,0.00060095,0.00187955,0.00017950,-0.01
 563328,-0.00129629,0.00000404,-0.30529935,0.03051620,0.00383214,-0.027
 92041,0.00493718,0.00057099,-0.00021780,0.00030725,0.00001916,-0.01932
 236,0.02463474,0.00217667,-0.00027374,0.00013026,0.00001107,-0.0001631
 1,-0.00019559,-0.00001619,-0.00023712,0.00010624,0.00004970,-0.0002380
 3,0.00011253,-0.00002812,0.77224707,-0.00441751,-0.01516468,-0.0016140
 7,0.01973864,0.00010723,-0.00089317,0.00841654,-0.13298593,-0.00755315
 ,-0.02039497,0.01653499,0.00126098,0.00305195,-0.00004237,0.00011774,0
 .04922860,-0.00773506,-0.00081407,-0.00036576,0.00228291,0.00018868,0.
 00059407,0.00027536,0.00002769,-0.00031350,-0.00002675,-0.00000188,-0.
 00029768,-0.00002103,-0.00000308,0.02589789,0.80979823,-0.00035638,-0.
 00164182,0.00394495,0.00178633,-0.00079763,0.00953271,0.00198596,-0.00
 765382,-0.04467662,-0.00158752,0.00113794,0.00290801,0.00025160,0.0001
 2979,-0.00158022,0.00426236,-0.00069482,-0.00101680,-0.00002910,0.0001
 8762,0.00007877,0.00005067,0.00003112,-0.00007911,0.00005555,0.0000273
 5,0.00002330,-0.00010481,-0.00003608,0.00001902,-0.00134314,0.06276572
 ,0.06825957,-0.00046203,-0.00152554,-0.00012298,0.00124538,0.00107855,
 0.00007655,-0.02033674,-0.02429649,-0.00195470,-0.00111556,0.00320645,
 0.00028767,-0.00013466,0.00000304,0.00000019,0.00166611,-0.00201779,-0
 .00018054,-0.00002850,0.00041882,0.00003478,0.00010394,0.00003967,0.00
 000300,-0.00004066,0.00000742,0.00002619,-0.00004012,0.00001165,-0.000
 02393,-0.21283945,-0.17815376,-0.01399768,0.21509119,0.00006533,0.0007
 6442,-0.00001564,0.00104746,-0.00182273,-0.00002829,0.00386009,0.01454
 534,0.00132224,0.00301429,-0.00160140,-0.00030119,-0.00012474,-0.00009
 785,0.00000314,-0.00030695,0.00115075,0.00013604,0.00004923,-0.0003273
 4,-0.00001930,-0.00006831,0.00000716,-0.00000033,0.00006251,-0.0000041
 9,0.00001037,0.00005632,0.00000001,-0.00001408,-0.17779444,-0.29160588
 ,-0.02251735,0.18961180,0.30253423,0.00001064,-0.00001029,0.00095279,0
 .00007715,-0.00002752,-0.00155893,0.00040816,0.00146024,-0.00127120,0.
 00026571,-0.00030071,0.00175759,-0.00001026,0.00000265,-0.00012939,-0.
 00003679,0.00014180,-0.00039927,0.00000366,-0.00002075,-0.00010291,-0.
 00000620,-0.00000091,0.00001494,-0.00002904,0.00001062,0.00001844,0.00
 003952,-0.00001395,0.00001426,-0.01395486,-0.02251091,-0.01534184,0.01
 496647,0.02316469,0.01790137,-0.00010811,0.00429654,0.00036439,-0.0040
 1318,-0.00076942,-0.00003209,-0.02397761,0.04518165,0.00392277,0.00354
 446,0.00075792,0.00004396,-0.00175066,-0.00078725,-0.00005657,-0.00177
 846,-0.00854362,-0.00072255,0.00013083,-0.00047874,-0.00004178,-0.0001
 2386,0.00000009,0.00000068,0.00015600,0.00001270,0.00006223,0.00015534
 ,0.00002304,-0.00006047,-0.17939195,0.09138101,0.00835639,0.01997963,-
 0.02253545,-0.00202914,0.66179984,0.00029293,0.00402248,0.00039018,-0.
 01860469,-0.00415613,-0.00051828,0.04634469,0.00242095,0.00010767,-0.0
 0417991,0.00132657,0.00016279,-0.00486341,0.00041200,0.00000914,0.0013
 0291,-0.00002102,0.00009679,-0.00018275,-0.00021443,-0.00001215,-0.000
 48392,-0.00030120,-0.00002469,-0.00022089,0.00006168,0.00000539,-0.000
 22428,0.00006400,0.00000719,0.06326214,-0.28335418,-0.02024312,0.00084
 354,-0.01944763,-0.00114451,0.16864566,0.96418050,0.00002358,0.0003664
 9,-0.00053647,-0.00153550,-0.00059603,0.00289413,0.00401456,0.00010893
 ,-0.00151260,-0.00037158,0.00013698,-0.00030760,-0.00039901,-0.0000071
 8,0.00053688,0.00011569,0.00013997,-0.00116962,-0.00001610,-0.00001131
 ,-0.00005685,-0.00004008,-0.00002642,0.00000944,-0.00003500,0.00001836
 ,0.00000350,-0.00000393,-0.00000814,0.00000172,0.00598755,-0.02038192,
 -0.04853438,-0.00005809,-0.00102819,-0.00597072,0.01175272,0.06538802,
 0.18273642,0.00088055,-0.00170957,-0.00014741,0.00552339,0.00292938,0.
 00022198,-0.00398224,-0.00666605,-0.00056479,-0.00528613,-0.00077003,-
 0.00004033,0.00024086,0.00240228,0.00019763,-0.00148675,0.00377452,0.0
 0032711,0.00001523,0.00036556,0.00003132,0.00023263,0.00003258,0.00000
 160,-0.00009691,-0.00001744,-0.00005225,-0.00009632,-0.00002600,0.0000
 4936,0.03371224,-0.00748209,-0.00071007,-0.00183259,0.00462876,0.00043
 373,-0.28127016,-0.28039043,-0.02251663,0.28625068,0.00044991,-0.00327
 303,-0.00036828,0.00857795,0.00323226,0.00029463,-0.01875069,0.0011864
 0,0.00052127,0.00210950,-0.00023360,-0.00007615,0.00333038,-0.00152120
 ,-0.00003712,-0.00184448,0.00072592,0.00003338,0.00008727,0.00004062,0
 .00000067,0.00024620,0.00018152,0.00001830,0.00015727,-0.00001362,0.00
 000591,0.00015854,-0.00001762,-0.00001023,-0.01622611,-0.09629444,-0.0
 0950192,0.00974916,-0.00202015,-0.00079907,-0.28853440,-0.56772768,-0.
 04073296,0.32797699,0.67335925,0.00003794,-0.00035494,0.00102512,0.000
 69275,0.00031641,-0.00067081,-0.00157598,0.00046246,-0.00389351,0.0002
 0254,-0.00006435,0.00053597,0.00027428,-0.00003224,-0.00125791,-0.0001
 4666,0.00001034,0.00040713,0.00000728,-0.00000007,0.00002036,0.0000195
 3,0.00001896,-0.00004326,0.00001828,-0.00003243,-0.00000124,0.00000905
 ,0.00002991,0.00000234,-0.00144715,-0.00954856,0.01676477,0.00086424,-
 0.00077361,0.00682397,-0.02320326,-0.04077170,-0.06981610,0.02631766,0
 .05243986,0.03495506,-0.00153808,-0.00081664,-0.00006540,0.00529090,-0
 .00038818,-0.00006301,-0.00146868,-0.00372933,-0.00027245,0.00043427,-
 0.00062674,-0.00005682,-0.00044768,0.00009778,0.00001391,-0.00189868,0
 .00206727,0.00018981,0.00006585,-0.00009242,-0.00000860,0.00005072,0.0
 0010269,0.00000868,0.00014716,-0.00001437,0.00005321,0.00014698,-0.000
 00497,-0.00005623,-0.02325902,0.00917025,0.00093225,0.00292094,0.00223
 936,0.00017219,-0.16923233,0.02390526,0.00239086,-0.01447169,-0.021357
 98,-0.00162726,0.71758265,0.00012601,-0.00032424,0.00002017,-0.0002915
 1,-0.00082648,0.00003863,0.00205604,-0.00797215,-0.00126509,-0.0017323
 3,0.00047803,0.00008016,0.00014736,0.00008526,-0.00005104,0.00156429,0
 .00070618,-0.00005860,-0.00006151,0.00008509,0.00000616,-0.00003114,-0
 .00004735,-0.00000609,-0.00006489,0.00001390,-0.00000920,-0.00006535,0
 .00001394,0.00001242,0.03303472,-0.00846712,-0.00158123,0.01065293,-0.
 00452270,-0.00040154,0.01741938,-0.05564054,0.00315613,-0.04022190,-0.
 02061903,-0.00314562,0.14824770,0.96561349,0.00001619,0.00002491,-0.00
 057462,-0.00005744,0.00004155,-0.00127588,0.00021531,-0.00123418,0.006
 81236,-0.00014911,0.00007525,-0.00036808,0.00001720,-0.00005157,0.0006
 8215,0.00014636,-0.00006427,0.00132198,-0.00000547,0.00000605,0.000018
 85,-0.00000283,-0.00000666,0.00002467,-0.00000874,0.00001224,-0.000001
 58,-0.00000362,-0.00000956,-0.00000108,0.00293978,-0.00146163,0.008224
 32,0.00088027,-0.00036003,-0.00042076,0.00185056,0.00312604,-0.0939453
 0,-0.00321623,-0.00324096,0.01890638,0.00976762,0.06515744,0.18841552,
 0.00090355,0.00002045,-0.00000223,-0.00291276,0.00051307,0.00005809,0.
 00392592,-0.00119878,-0.00012453,-0.00115133,0.00037520,0.00003725,0.0
 0040325,-0.00001083,-0.00000349,0.00088165,-0.00032526,-0.00003189,-0.
 00005076,0.00011981,0.00001062,-0.00000917,-0.00006097,-0.00000518,-0.
 00011317,0.00000918,-0.00003727,-0.00011297,0.00000256,0.00003932,-0.0
 0861687,0.00366774,0.00035844,-0.00373418,-0.00282366,-0.00023272,-0.0
 0762003,-0.03836873,-0.00308590,-0.01554789,-0.00499931,-0.00035370,-0
 .30100473,-0.28601591,-0.02290025,0.29354788,0.00035856,0.00056377,0.0
 0004022,-0.00078389,0.00039631,0.00001400,-0.00149637,0.00386899,0.000
 41039,0.00081421,-0.00040817,-0.00004428,0.00021665,-0.00002721,0.0000
 1200,0.00022528,-0.00084740,-0.00006190,0.00003629,-0.00004718,-0.0000
 0309,0.00001547,0.00000848,0.00000135,0.00001172,-0.00000640,-0.000006
 76,0.00001250,-0.00000853,0.00000540,0.00535737,0.00376801,0.00017953,
 -0.00585634,0.00130923,0.00037296,-0.01015745,-0.02135876,-0.00350559,
 -0.00559920,0.00497068,0.00063706,-0.29732777,-0.58033177,-0.04166838,
 0.33010088,0.69264259,0.00002590,0.00004141,0.00007651,-0.00005000,0.0
 0000744,0.00027452,-0.00015024,0.00040874,-0.00087877,0.00007473,-0.00
 004177,0.00005937,0.00001551,0.00001310,-0.00017937,0.00001408,-0.0000
 5859,-0.00013379,0.00000324,-0.00000354,-0.00001234,0.00000133,0.00000
 169,-0.00000761,0.00000590,-0.00000649,-0.00000103,-0.00000272,0.00000
 518,0.00000067,0.00050128,0.00018785,0.00132058,-0.00048799,0.00035820
 ,-0.00274221,-0.00071244,-0.00336361,0.02062370,-0.00040388,0.00063410
 ,-0.00220402,-0.02385156,-0.04172455,-0.07098228,0.02645660,0.05417435
 ,0.03386966,0.00067544,0.00007048,0.00000258,-0.00240524,0.00044682,0.
 00004956,0.00410083,0.00232511,0.00017626,-0.00086539,0.00018363,0.000
 02092,0.00022601,0.00003024,0.00000098,-0.00020872,-0.00032094,-0.0000
 2673,-0.00005442,0.00009144,0.00000826,-0.00002326,-0.00006224,-0.0000
 0527,-0.00009578,0.00001006,-0.00002809,-0.00009569,0.00000508,0.00003
 024,-0.01309070,0.00088130,0.00014031,-0.00005780,-0.00115238,-0.00009
 584,-0.01687355,0.03913742,0.00342897,-0.00439455,-0.00045492,-0.00002
 064,-0.18421808,0.10838049,0.00975605,0.03924579,-0.00584710,-0.000546
 38,0.66929775,-0.00030273,0.00001430,0.00000483,0.00135891,0.00011328,
 -0.00000579,-0.00260666,0.00026374,0.00004225,0.00081835,-0.00026612,-
 0.00004716,-0.00004455,-0.00004232,0.00000590,-0.00018709,0.00017398,0
 .00002662,0.00005052,-0.00007654,-0.00000648,0.00003210,0.00005015,0.0
 0000504,0.00006884,-0.00000966,0.00001504,0.00006909,-0.00000804,-0.00
 001691,0.00396309,0.00278138,0.00018985,-0.00421924,0.00114528,0.00010
 256,0.00379830,-0.01383448,-0.00194813,0.00204043,0.00676353,0.0006337
 4,0.08347834,-0.29187975,-0.01988222,0.00639279,-0.10585515,-0.0113579
 4,-0.04972310,0.45315052,-0.00002902,0.00000332,-0.00002539,0.00012715
 ,-0.00000196,0.00010771,-0.00024124,0.00001805,-0.00008735,0.00007426,
 -0.00004418,0.00023845,-0.00000532,0.00000562,-0.00010947,-0.00001522,
 0.00002763,-0.00013122,0.00000453,-0.00000651,-0.00000494,0.00000276,0
 .00000544,-0.00000988,0.00000785,-0.00000725,-0.00000079,0.00000471,0.
 00000593,-0.00000265,0.00040201,0.00020523,0.00030599,-0.00035437,0.00
 008726,0.00018816,0.00045050,-0.00212835,0.00889981,0.00019002,0.00064
 681,-0.00083090,0.00765703,-0.02000673,-0.06263399,0.00048426,-0.01129
 539,0.02764512,-0.00735190,0.03489896,0.04483936,-0.00014004,0.0000355
 4,0.00000373,0.00033388,-0.00003022,-0.00000378,-0.00034113,0.00029382
 ,0.00002517,0.00021388,-0.00005310,-0.00000551,-0.00005812,-0.00000177
 ,0.00000022,-0.00015333,-0.00000608,-0.00000049,0.00001004,-0.00002304
 ,-0.00000206,0.00000124,0.00000998,0.00000088,0.00001722,-0.00000099,0
 .00000729,0.00001719,0.00000025,-0.00000751,-0.00005706,-0.00060272,-0
 .00005116,-0.00038488,0.00017081,0.00001764,0.00037380,0.00378446,0.00
 034788,0.00160964,-0.00067529,-0.00006890,-0.02910049,0.00685562,0.000
 75435,0.00196584,-0.01008081,-0.00089335,-0.49116265,-0.04498739,-0.00
 140803,0.51685497,0.00007227,-0.00004981,-0.00000624,-0.00010359,-0.00
 002413,-0.00000608,0.00022127,-0.00041565,-0.00001371,-0.00012628,0.00
 002713,0.00000723,0.00003433,0.00000795,-0.00000137,0.00012492,0.00002
 201,0.00001093,-0.00000639,0.00001869,0.00000139,-0.00000108,-0.000006
 48,-0.00000102,-0.00000886,0.00000142,-0.00000334,-0.00000924,0.000001
 44,0.00000365,0.00137327,0.00014934,0.00001887,0.00044611,-0.00000657,
 -0.00002536,0.00029005,-0.00643214,-0.00106901,-0.00126779,0.00126019,
 0.00017479,0.05504974,0.00363523,-0.00046405,-0.00739822,0.00136250,0.
 00072442,-0.09400141,-0.05248410,-0.00241388,0.04531093,0.05293295,0.0
 0000686,-0.00000607,0.00001963,-0.00001020,-0.00000648,0.00005272,0.00
 001900,-0.00001404,-0.00026869,-0.00001191,0.00000680,-0.00004883,0.00
 000329,-0.00000123,0.00002241,0.00001086,0.00001148,-0.00011256,-0.000
 00058,0.00000148,0.00000270,-0.00000007,-0.00000108,0.00000547,-0.0000
 0321,0.00000375,0.00000005,0.00000152,-0.00000351,0.00000006,0.0001155
 7,0.00002856,-0.00015302,0.00004090,-0.00002394,0.00026573,0.00005410,
 -0.00108683,0.00614404,-0.00011880,0.00017175,-0.00072334,0.00481577,-
 0.00022143,0.00579732,-0.00066742,0.00073814,-0.00672871,-0.00553929,-
 0.00266016,-0.01838803,0.00128362,0.00306280,0.01411304\\-0.00000714,0
 .00000198,0.00001080,0.00000333,-0.00000482,-0.00000698,0.00000841,0.0
 0000242,0.00000017,0.00000374,0.00000263,0.00000282,-0.00000088,0.0000
 0105,-0.00000461,-0.00000310,0.00000082,-0.00000232,-0.00000055,0.0000
 0042,0.00000124,-0.00000065,0.00000033,0.00000044,0.00000097,0.0000002
 5,-0.00000061,-0.00000091,0.00000112,-0.00000071,-0.00000819,-0.000002
 75,-0.00000385,0.00000505,-0.00000331,0.00000419,-0.00000795,0.0000003
 8,0.00000239,0.00000390,0.00000337,-0.00000289,0.00000700,-0.00000794,
 -0.00000565,-0.00000113,-0.00000115,0.00000235,-0.00000233,0.00000768,
 0.00000485,0.00000045,-0.00000246,-0.00000163\\\@
 The archive entry for this job was punched.


 SIGN SEEN IN A RESTAURANT-
 WE RESERVE THE RIGHT TO SERVE REFUSE TO ANYONE.
 Job cpu time:       0 days  2 hours  7 minutes 28.8 seconds.
 Elapsed time:       0 days  0 hours  4 minutes  1.6 seconds.
 File lengths (MBytes):  RWF=    132 Int=      0 D2E=      0 Chk=      7 Scr=      1
 Normal termination of Gaussian 16 at Mon May 15 22:11:17 2023.
