 Entering Gaussian System, Link 0=/home/user/SOFTWARE/gauss/g16/g16
 Input=/home/user/WorkIMPORTANT/Joydeep/I-M2/+1/I-M2.gjf
 Output=/home/user/WorkIMPORTANT/Joydeep/I-M2/+1/I-M2.log
 Initial command:
 /home/user/SOFTWARE/gauss/g16/l1.exe "/home/user/SOFTWARE/gauss/scratch/Gau-37046.inp" -scrdir="/home/user/SOFTWARE/gauss/scratch/"
 Entering Link 1 = /home/user/SOFTWARE/gauss/g16/l1.exe PID=     37048.
  
 Copyright (c) 1988-2019, Gaussian, Inc.  All Rights Reserved.
  
 This is part of the Gaussian(R) 16 program.  It is based on
 the Gaussian(R) 09 system (copyright 2009, Gaussian, Inc.),
 the Gaussian(R) 03 system (copyright 2003, Gaussian, Inc.),
 the Gaussian(R) 98 system (copyright 1998, Gaussian, Inc.),
 the Gaussian(R) 94 system (copyright 1995, Gaussian, Inc.),
 the Gaussian 92(TM) system (copyright 1992, Gaussian, Inc.),
 the Gaussian 90(TM) system (copyright 1990, Gaussian, Inc.),
 the Gaussian 88(TM) system (copyright 1988, Gaussian, Inc.),
 the Gaussian 86(TM) system (copyright 1986, Carnegie Mellon
 University), and the Gaussian 82(TM) system (copyright 1983,
 Carnegie Mellon University). Gaussian is a federally registered
 trademark of Gaussian, Inc.
  
 This software contains proprietary and confidential information,
 including trade secrets, belonging to Gaussian, Inc.
  
 This software is provided under written license and may be
 used, copied, transmitted, or stored only in accord with that
 written license.
  
 The following legend is applicable only to US Government
 contracts under FAR:
  
                    RESTRICTED RIGHTS LEGEND
  
 Use, reproduction and disclosure by the US Government is
 subject to restrictions as set forth in subparagraphs (a)
 and (c) of the Commercial Computer Software - Restricted
 Rights clause in FAR 52.227-19.
  
 Gaussian, Inc.
 340 Quinnipiac St., Bldg. 40, Wallingford CT 06492
  
  
 ---------------------------------------------------------------
 Warning -- This program may not be used in any manner that
 competes with the business of Gaussian, Inc. or will provide
 assistance to any competitor of Gaussian, Inc.  The licensee
 of this program is prohibited from giving any competitor of
 Gaussian, Inc. access to this program.  By using this program,
 the user acknowledges that Gaussian, Inc. is engaged in the
 business of creating and licensing software in the field of
 computational chemistry and represents and warrants to the
 licensee that it is not a competitor of Gaussian, Inc. and that
 it will not use this program in any manner prohibited above.
 ---------------------------------------------------------------
  

 Cite this work as:
 Gaussian 16, Revision C.01,
 M. J. Frisch, G. W. Trucks, H. B. Schlegel, G. E. Scuseria, 
 M. A. Robb, J. R. Cheeseman, G. Scalmani, V. Barone, 
 G. A. Petersson, H. Nakatsuji, X. Li, M. Caricato, A. V. Marenich, 
 J. Bloino, B. G. Janesko, R. Gomperts, B. Mennucci, H. P. Hratchian, 
 J. V. Ortiz, A. F. Izmaylov, J. L. Sonnenberg, D. Williams-Young, 
 F. Ding, F. Lipparini, F. Egidi, J. Goings, B. Peng, A. Petrone, 
 T. Henderson, D. Ranasinghe, V. G. Zakrzewski, J. Gao, N. Rega, 
 G. Zheng, W. Liang, M. Hada, M. Ehara, K. Toyota, R. Fukuda, 
 J. Hasegawa, M. Ishida, T. Nakajima, Y. Honda, O. Kitao, H. Nakai, 
 T. Vreven, K. Throssell, J. A. Montgomery, Jr., J. E. Peralta, 
 F. Ogliaro, M. J. Bearpark, J. J. Heyd, E. N. Brothers, K. N. Kudin, 
 V. N. Staroverov, T. A. Keith, R. Kobayashi, J. Normand, 
 K. Raghavachari, A. P. Rendell, J. C. Burant, S. S. Iyengar, 
 J. Tomasi, M. Cossi, J. M. Millam, M. Klene, C. Adamo, R. Cammi, 
 J. W. Ochterski, R. L. Martin, K. Morokuma, O. Farkas, 
 J. B. Foresman, and D. J. Fox, Gaussian, Inc., Wallingford CT, 2019.
 
 ******************************************
 Gaussian 16:  ES64L-G16RevC.01  3-Jul-2019
                15-May-2023 
 ******************************************
 %mem=48GB
 %nprocshared=12
 Will use up to   12 processors via shared memory.
 --------------------------------
 # 6-31+g(d,p) pop=(full,nbo) m06
 --------------------------------
 1/38=1,172=1/1;
 2/12=2,17=6,18=5,40=1/2;
 3/5=1,6=6,7=111,11=2,25=1,30=1,74=-54/1,2,3;
 4//1;
 5/5=2,38=5/2;
 6/7=3,28=1,40=1/1,7;
 99/5=1,9=1/99;
 ----
 I-M2
 ----
 Symbolic Z-matrix:
 Charge =  1 Multiplicity = 2
 C                     2.81502   0.2673    0.00026 
 O                     2.80626  -1.0773   -0.00033 
 C                     0.76538  -0.44875  -0.00015 
 C                     1.53902   0.74046   0.00035 
 H                     1.19008   1.76148   0.00061 
 N                     1.50268  -1.53791  -0.00057 
 C                     4.14118   0.9202    0.00047 
 H                     4.02565   2.00654   0.00202 
 H                     4.71898   0.62746   0.88381 
 H                     4.71804   0.62994  -0.8843 
 N                    -0.61292  -0.60079  -0.00008 
 H                    -0.97765  -1.54996   0.0003 
 C                    -1.51244   0.42051  -0.00029 
 O                    -1.25892   1.60553  -0.00076 
 C                    -2.94601  -0.1298    0.00017 
 O                    -3.19835  -1.31249   0.00062 
 O                    -3.84794   0.84078   0.00008 
 H                    -4.7247    0.42368   0.00035 
 
                          Input orientation:                          
 ---------------------------------------------------------------------
 Center     Atomic      Atomic             Coordinates (Angstroms)
 Number     Number       Type             X           Y           Z
 ---------------------------------------------------------------------
      1          6           0        2.815018    0.267296    0.000256
      2          8           0        2.806257   -1.077298   -0.000325
      3          6           0        0.765383   -0.448753   -0.000152
      4          6           0        1.539024    0.740456    0.000351
      5          1           0        1.190082    1.761481    0.000606
      6          7           0        1.502682   -1.537905   -0.000570
      7          6           0        4.141179    0.920201    0.000470
      8          1           0        4.025646    2.006539    0.002023
      9          1           0        4.718979    0.627462    0.883806
     10          1           0        4.718042    0.629938   -0.884303
     11          7           0       -0.612923   -0.600792   -0.000082
     12          1           0       -0.977647   -1.549964    0.000298
     13          6           0       -1.512436    0.420509   -0.000286
     14          8           0       -1.258921    1.605534   -0.000756
     15          6           0       -2.946013   -0.129795    0.000172
     16          8           0       -3.198349   -1.312485    0.000620
     17          8           0       -3.847943    0.840781    0.000075
     18          1           0       -4.724697    0.423680    0.000350
 ---------------------------------------------------------------------
                    Distance matrix (angstroms):
                    1          2          3          4          5
     1  C    0.000000
     2  O    1.344623   0.000000
     3  C    2.171113   2.135471   0.000000
     4  C    1.360897   2.215877   1.418710   0.000000
     5  H    2.207489   3.266602   2.250667   1.079005   0.000000
     6  N    2.231810   1.382558   1.315242   2.278651   3.314162
     7  C    1.478170   2.402503   3.642806   2.608356   3.068668
     8  H    2.119101   3.316167   4.081394   2.790387   2.846134
     9  H    2.129659   2.710424   4.191723   3.302329   3.810401
    10  H    2.129661   2.711272   4.191516   3.301664   3.809194
    11  N    3.536150   3.452224   1.386666   2.535709   2.971727
    12  H    4.205561   3.813311   2.061752   3.402889   3.957868
    13  C    4.330165   4.571054   2.438048   3.068188   3.016921
    14  O    4.288107   4.870653   2.884077   2.928627   2.453964
    15  C    5.774700   5.829783   3.725076   4.568686   4.547989
    16  O    6.217418   6.009210   4.056748   5.163068   5.357947
    17  O    6.687596   6.925129   4.790164   5.387901   5.121463
    18  H    7.541337   7.679076   5.558967   6.271726   6.064184
                    6          7          8          9         10
     6  N    0.000000
     7  C    3.606099   0.000000
     8  H    4.350682   1.092465   0.000000
     9  H    3.976871   1.095368   1.777668   0.000000
    10  H    3.977319   1.095375   1.777643   1.768111   0.000000
    11  N    2.313864   4.991483   5.321137   5.542476   5.542177
    12  H    2.480358   5.683669   6.138539   6.162249   6.162416
    13  C    3.595319   5.675655   5.760716   6.297220   6.296364
    14  O    4.184216   5.443415   5.299760   6.121631   6.120174
    15  C    4.666226   7.164550   7.291636   7.752828   7.752240
    16  O    4.706433   7.671607   7.949970   8.199237   8.199106
    17  O    5.855539   7.989517   7.959422   8.615024   8.614098
    18  H    6.529017   8.879769   8.892353   9.487099   9.486331
                   11         12         13         14         15
    11  N    0.000000
    12  H    1.016834   0.000000
    13  C    1.360948   2.041755   0.000000
    14  O    2.298954   3.168009   1.211839   0.000000
    15  C    2.380157   2.427209   1.535571   2.420258   0.000000
    16  O    2.681592   2.233364   2.417762   3.503743   1.209309
    17  O    3.541679   3.735540   2.373020   2.699608   1.324951
    18  H    4.237479   4.235051   3.212263   3.661746   1.862807
                   16         17         18
    16  O    0.000000
    17  O    2.249117   0.000000
    18  H    2.311711   0.970912   0.000000
 Stoichiometry    C6H6N2O4(1+,2)
 Framework group  C1[X(C6H6N2O4)]
 Deg. of freedom    48
 Full point group                 C1      NOp   1
 Largest Abelian subgroup         C1      NOp   1
 Largest concise Abelian subgroup C1      NOp   1
                         Standard orientation:                         
 ---------------------------------------------------------------------
 Center     Atomic      Atomic             Coordinates (Angstroms)
 Number     Number       Type             X           Y           Z
 ---------------------------------------------------------------------
      1          6           0       -2.815018    0.267296   -0.000256
      2          8           0       -2.806257   -1.077298    0.000325
      3          6           0       -0.765383   -0.448753    0.000152
      4          6           0       -1.539024    0.740456   -0.000351
      5          1           0       -1.190082    1.761481   -0.000606
      6          7           0       -1.502682   -1.537905    0.000570
      7          6           0       -4.141179    0.920201   -0.000470
      8          1           0       -4.025646    2.006539   -0.002023
      9          1           0       -4.718979    0.627462   -0.883806
     10          1           0       -4.718042    0.629938    0.884303
     11          7           0        0.612923   -0.600792    0.000082
     12          1           0        0.977647   -1.549964   -0.000298
     13          6           0        1.512436    0.420509    0.000286
     14          8           0        1.258921    1.605534    0.000756
     15          6           0        2.946013   -0.129795   -0.000172
     16          8           0        3.198349   -1.312485   -0.000620
     17          8           0        3.847943    0.840781   -0.000075
     18          1           0        4.724697    0.423680   -0.000350
 ---------------------------------------------------------------------
 Rotational constants (GHZ):           2.9557061           0.4417487           0.3852340
 Standard basis: 6-31+G(d,p) (6D, 7F)
 There are   258 symmetry adapted cartesian basis functions of A   symmetry.
 There are   258 symmetry adapted basis functions of A   symmetry.
   258 basis functions,   426 primitive gaussians,   258 cartesian basis functions
    44 alpha electrons       43 beta electrons
       nuclear repulsion energy       676.5275823784 Hartrees.
 NAtoms=   18 NActive=   18 NUniq=   18 SFac= 1.00D+00 NAtFMM=   60 NAOKFM=F Big=F
 Integral buffers will be    131072 words long.
 Raffenetti 2 integral format.
 Two-electron integral symmetry is turned on.
 One-electron integrals computed using PRISM.
 NBasis=   258 RedAO= T EigKep=  7.98D-06  NBF=   258
 NBsUse=   258 1.00D-06 EigRej= -1.00D+00 NBFU=   258
 ExpMin= 4.38D-02 ExpMax= 5.48D+03 ExpMxC= 8.25D+02 IAcc=3 IRadAn=         5 AccDes= 0.00D+00
 Harris functional with IExCor= 1009 and IRadAn=       5 diagonalized for initial guess.
 HarFok:  IExCor= 1009 AccDes= 0.00D+00 IRadAn=         5 IDoV= 1 UseB2=F ITyADJ=14
 ICtDFT=  3500011 ScaDFX=  1.000000  1.000000  1.000000  1.000000
 FoFCou: FMM=F IPFlag=           0 FMFlag=      100000 FMFlg1=           0
         NFxFlg=           0 DoJE=T BraDBF=F KetDBF=T FulRan=T
         wScrn=  0.000000 ICntrl=       500 IOpCl=  0 I1Cent=   200000004 NGrid=           0
         NMat0=    1 NMatS0=      1 NMatT0=    0 NMatD0=    1 NMtDS0=    0 NMtDT0=    0
 Petite list used in FoFCou.
 Initial guess <Sx>= 0.0000 <Sy>= 0.0000 <Sz>= 0.5000 <S**2>= 0.7500 S= 0.5000
 Requested convergence on RMS density matrix=1.00D-08 within 128 cycles.
 Requested convergence on MAX density matrix=1.00D-06.
 Requested convergence on             energy=1.00D-06.
 No special actions if energy rises.
 EnCoef did     3 forward-backward iterations
 Restarting incremental Fock formation.
 SCF Done:  E(UM06) =  -641.966094105     A.U. after   28 cycles
            NFock= 28  Conv=0.63D-08     -V/T= 2.0095
 <Sx>= 0.0000 <Sy>= 0.0000 <Sz>= 0.5000 <S**2>= 0.7623 S= 0.5061
 <L.S>=  0.00000000000    
 Annihilation of the first spin contaminant:
 S**2 before annihilation     0.7623,   after     0.7501

 **********************************************************************

            Population analysis using the SCF Density.

 **********************************************************************

 Orbital symmetries:
 Alpha Orbitals:
       Occupied  (A) (A) (A) (A) (A) (A) (A) (A) (A) (A) (A) (A)
                 (A) (A) (A) (A) (A) (A) (A) (A) (A) (A) (A) (A)
                 (A) (A) (A) (A) (A) (A) (A) (A) (A) (A) (A) (A)
                 (A) (A) (A) (A) (A) (A) (A) (A)
       Virtual   (A) (A) (A) (A) (A) (A) (A) (A) (A) (A) (A) (A)
                 (A) (A) (A) (A) (A) (A) (A) (A) (A) (A) (A) (A)
                 (A) (A) (A) (A) (A) (A) (A) (A) (A) (A) (A) (A)
                 (A) (A) (A) (A) (A) (A) (A) (A) (A) (A) (A) (A)
                 (A) (A) (A) (A) (A) (A) (A) (A) (A) (A) (A) (A)
                 (A) (A) (A) (A) (A) (A) (A) (A) (A) (A) (A) (A)
                 (A) (A) (A) (A) (A) (A) (A) (A) (A) (A) (A) (A)
                 (A) (A) (A) (A) (A) (A) (A) (A) (A) (A) (A) (A)
                 (A) (A) (A) (A) (A) (A) (A) (A) (A) (A) (A) (A)
                 (A) (A) (A) (A) (A) (A) (A) (A) (A) (A) (A) (A)
                 (A) (A) (A) (A) (A) (A) (A) (A) (A) (A) (A) (A)
                 (A) (A) (A) (A) (A) (A) (A) (A) (A) (A) (A) (A)
                 (A) (A) (A) (A) (A) (A) (A) (A) (A) (A) (A) (A)
                 (A) (A) (A) (A) (A) (A) (A) (A) (A) (A) (A) (A)
                 (A) (A) (A) (A) (A) (A) (A) (A) (A) (A) (A) (A)
                 (A) (A) (A) (A) (A) (A) (A) (A) (A) (A) (A) (A)
                 (A) (A) (A) (A) (A) (A) (A) (A) (A) (A) (A) (A)
                 (A) (A) (A) (A) (A) (A) (A) (A) (A) (A)
 Beta  Orbitals:
       Occupied  (A) (A) (A) (A) (A) (A) (A) (A) (A) (A) (A) (A)
                 (A) (A) (A) (A) (A) (A) (A) (A) (A) (A) (A) (A)
                 (A) (A) (A) (A) (A) (A) (A) (A) (A) (A) (A) (A)
                 (A) (A) (A) (A) (A) (A) (A)
       Virtual   (A) (A) (A) (A) (A) (A) (A) (A) (A) (A) (A) (A)
                 (A) (A) (A) (A) (A) (A) (A) (A) (A) (A) (A) (A)
                 (A) (A) (A) (A) (A) (A) (A) (A) (A) (A) (A) (A)
                 (A) (A) (A) (A) (A) (A) (A) (A) (A) (A) (A) (A)
                 (A) (A) (A) (A) (A) (A) (A) (A) (A) (A) (A) (A)
                 (A) (A) (A) (A) (A) (A) (A) (A) (A) (A) (A) (A)
                 (A) (A) (A) (A) (A) (A) (A) (A) (A) (A) (A) (A)
                 (A) (A) (A) (A) (A) (A) (A) (A) (A) (A) (A) (A)
                 (A) (A) (A) (A) (A) (A) (A) (A) (A) (A) (A) (A)
                 (A) (A) (A) (A) (A) (A) (A) (A) (A) (A) (A) (A)
                 (A) (A) (A) (A) (A) (A) (A) (A) (A) (A) (A) (A)
                 (A) (A) (A) (A) (A) (A) (A) (A) (A) (A) (A) (A)
                 (A) (A) (A) (A) (A) (A) (A) (A) (A) (A) (A) (A)
                 (A) (A) (A) (A) (A) (A) (A) (A) (A) (A) (A) (A)
                 (A) (A) (A) (A) (A) (A) (A) (A) (A) (A) (A) (A)
                 (A) (A) (A) (A) (A) (A) (A) (A) (A) (A) (A) (A)
                 (A) (A) (A) (A) (A) (A) (A) (A) (A) (A) (A) (A)
                 (A) (A) (A) (A) (A) (A) (A) (A) (A) (A) (A)
 The electronic state is 2-A.
 Alpha  occ. eigenvalues --  -19.56175 -19.45147 -19.44121 -19.41133 -14.74954
 Alpha  occ. eigenvalues --  -14.70084 -10.58621 -10.58411 -10.58305 -10.57593
 Alpha  occ. eigenvalues --  -10.48755 -10.45491  -1.42573  -1.31302  -1.28357
 Alpha  occ. eigenvalues --   -1.22694  -1.20903  -1.13028  -1.05577  -0.94693
 Alpha  occ. eigenvalues --   -0.92842  -0.86863  -0.83284  -0.81365  -0.74889
 Alpha  occ. eigenvalues --   -0.74860  -0.72934  -0.70349  -0.68175  -0.67040
 Alpha  occ. eigenvalues --   -0.65575  -0.64337  -0.63345  -0.62578  -0.61769
 Alpha  occ. eigenvalues --   -0.60660  -0.58466  -0.57857  -0.57489  -0.52292
 Alpha  occ. eigenvalues --   -0.52186  -0.50943  -0.49907  -0.46126
 Alpha virt. eigenvalues --   -0.25884  -0.21918  -0.16464  -0.15570  -0.15229
 Alpha virt. eigenvalues --   -0.13351  -0.12881  -0.12571  -0.11777  -0.11327
 Alpha virt. eigenvalues --   -0.10263  -0.10187  -0.09318  -0.08672  -0.07943
 Alpha virt. eigenvalues --   -0.07773  -0.07281  -0.06730  -0.06304  -0.05474
 Alpha virt. eigenvalues --   -0.03759  -0.03571  -0.02925  -0.02609  -0.02371
 Alpha virt. eigenvalues --   -0.01565   0.00107   0.01571   0.01690   0.02165
 Alpha virt. eigenvalues --    0.03434   0.03723   0.03825   0.04711   0.05236
 Alpha virt. eigenvalues --    0.05688   0.06480   0.06813   0.07081   0.07940
 Alpha virt. eigenvalues --    0.08101   0.08833   0.09409   0.09951   0.10343
 Alpha virt. eigenvalues --    0.12098   0.12743   0.13259   0.13281   0.13639
 Alpha virt. eigenvalues --    0.14285   0.14457   0.15400   0.15991   0.16506
 Alpha virt. eigenvalues --    0.17506   0.18664   0.19165   0.21189   0.21423
 Alpha virt. eigenvalues --    0.22774   0.23978   0.26422   0.27978   0.28711
 Alpha virt. eigenvalues --    0.30216   0.32373   0.34257   0.35611   0.44830
 Alpha virt. eigenvalues --    0.46285   0.47013   0.47497   0.49413   0.50966
 Alpha virt. eigenvalues --    0.52528   0.53138   0.53707   0.55082   0.59149
 Alpha virt. eigenvalues --    0.59922   0.60881   0.64142   0.66903   0.70307
 Alpha virt. eigenvalues --    0.70920   0.71533   0.72740   0.74820   0.74824
 Alpha virt. eigenvalues --    0.78360   0.78599   0.82585   0.84820   0.85859
 Alpha virt. eigenvalues --    0.86367   0.88753   0.92311   0.94540   0.95051
 Alpha virt. eigenvalues --    0.95445   0.96977   0.98951   1.02542   1.02766
 Alpha virt. eigenvalues --    1.03897   1.04940   1.06814   1.09345   1.10531
 Alpha virt. eigenvalues --    1.11135   1.11545   1.13926   1.15021   1.15373
 Alpha virt. eigenvalues --    1.16904   1.18447   1.18945   1.20473   1.22347
 Alpha virt. eigenvalues --    1.25341   1.25544   1.26496   1.27399   1.30911
 Alpha virt. eigenvalues --    1.32056   1.39700   1.40308   1.43167   1.43783
 Alpha virt. eigenvalues --    1.46037   1.47884   1.48241   1.51801   1.56237
 Alpha virt. eigenvalues --    1.57063   1.59313   1.61384   1.64669   1.66032
 Alpha virt. eigenvalues --    1.68151   1.70530   1.71275   1.72658   1.74554
 Alpha virt. eigenvalues --    1.77151   1.80681   1.81670   1.85254   1.85310
 Alpha virt. eigenvalues --    1.87840   1.88951   1.89077   1.91846   1.93870
 Alpha virt. eigenvalues --    1.94573   1.95010   2.00083   2.02876   2.04818
 Alpha virt. eigenvalues --    2.07181   2.09806   2.14180   2.15070   2.20229
 Alpha virt. eigenvalues --    2.21423   2.21764   2.27486   2.27884   2.29103
 Alpha virt. eigenvalues --    2.29735   2.34189   2.36436   2.41824   2.41950
 Alpha virt. eigenvalues --    2.42872   2.42905   2.47979   2.51497   2.53386
 Alpha virt. eigenvalues --    2.57775   2.58784   2.64212   2.67739   2.68874
 Alpha virt. eigenvalues --    2.69881   2.75382   2.76834   2.78380   2.83761
 Alpha virt. eigenvalues --    2.87958   2.96498   3.00656   3.03906   3.05605
 Alpha virt. eigenvalues --    3.06736   3.13854   3.18822   3.24523   3.31073
 Alpha virt. eigenvalues --    3.33517   3.43624   3.89338   4.05528   4.07713
 Alpha virt. eigenvalues --    4.12979   4.15732   4.19867   4.26161   4.32579
 Alpha virt. eigenvalues --    4.40275   4.46803   4.54416   4.79677
  Beta  occ. eigenvalues --  -19.56171 -19.45148 -19.43948 -19.41130 -14.73929
  Beta  occ. eigenvalues --  -14.69804 -10.58698 -10.58478 -10.58092 -10.57592
  Beta  occ. eigenvalues --  -10.48729 -10.45485  -1.41565  -1.31189  -1.27857
  Beta  occ. eigenvalues --   -1.22509  -1.20221  -1.11198  -1.05026  -0.94319
  Beta  occ. eigenvalues --   -0.92493  -0.86448  -0.83065  -0.81070  -0.74266
  Beta  occ. eigenvalues --   -0.72625  -0.72152  -0.70111  -0.67311  -0.66992
  Beta  occ. eigenvalues --   -0.65274  -0.64230  -0.62463  -0.62306  -0.60691
  Beta  occ. eigenvalues --   -0.60106  -0.58430  -0.56507  -0.55948  -0.52064
  Beta  occ. eigenvalues --   -0.50898  -0.48434  -0.45970
  Beta virt. eigenvalues --   -0.40485  -0.23677  -0.20269  -0.16396  -0.15243
  Beta virt. eigenvalues --   -0.14318  -0.13198  -0.12450  -0.12448  -0.11569
  Beta virt. eigenvalues --   -0.11169  -0.10139  -0.09953  -0.09266  -0.08554
  Beta virt. eigenvalues --   -0.07869  -0.07605  -0.07113  -0.06530  -0.06272
  Beta virt. eigenvalues --   -0.05443  -0.03629  -0.03525  -0.02772  -0.02616
  Beta virt. eigenvalues --   -0.02265  -0.01521   0.00211   0.01703   0.02249
  Beta virt. eigenvalues --    0.02380   0.03509   0.03892   0.03962   0.04705
  Beta virt. eigenvalues --    0.05280   0.05927   0.06445   0.06908   0.07204
  Beta virt. eigenvalues --    0.07972   0.08198   0.08897   0.09429   0.10035
  Beta virt. eigenvalues --    0.10318   0.12258   0.12891   0.13265   0.13385
  Beta virt. eigenvalues --    0.13627   0.14388   0.14619   0.15470   0.16047
  Beta virt. eigenvalues --    0.16496   0.17558   0.18800   0.19108   0.21243
  Beta virt. eigenvalues --    0.21503   0.22794   0.24205   0.27160   0.28183
  Beta virt. eigenvalues --    0.28924   0.30441   0.32484   0.34257   0.35895
  Beta virt. eigenvalues --    0.45186   0.46406   0.46873   0.47616   0.49355
  Beta virt. eigenvalues --    0.51125   0.52892   0.53316   0.53871   0.55392
  Beta virt. eigenvalues --    0.59095   0.60078   0.60940   0.64156   0.67036
  Beta virt. eigenvalues --    0.71057   0.71742   0.71988   0.74335   0.74892
  Beta virt. eigenvalues --    0.76002   0.78454   0.78746   0.82826   0.84917
  Beta virt. eigenvalues --    0.85920   0.86576   0.88956   0.92442   0.94685
  Beta virt. eigenvalues --    0.95520   0.95679   0.97023   0.99007   1.02777
  Beta virt. eigenvalues --    1.03123   1.04155   1.05465   1.06905   1.10470
  Beta virt. eigenvalues --    1.10576   1.11688   1.12105   1.14025   1.15077
  Beta virt. eigenvalues --    1.15471   1.16931   1.18500   1.19715   1.21280
  Beta virt. eigenvalues --    1.22416   1.25460   1.25661   1.26617   1.27540
  Beta virt. eigenvalues --    1.31090   1.32997   1.40183   1.40705   1.43173
  Beta virt. eigenvalues --    1.43877   1.46559   1.48500   1.48696   1.51881
  Beta virt. eigenvalues --    1.56357   1.57198   1.59795   1.61860   1.65596
  Beta virt. eigenvalues --    1.66317   1.68770   1.71037   1.71953   1.73191
  Beta virt. eigenvalues --    1.74701   1.77278   1.80669   1.81916   1.85563
  Beta virt. eigenvalues --    1.85657   1.88010   1.89204   1.89612   1.92389
  Beta virt. eigenvalues --    1.94305   1.94488   1.95617   2.00453   2.04013
  Beta virt. eigenvalues --    2.05670   2.07738   2.10499   2.15032   2.15309
  Beta virt. eigenvalues --    2.20347   2.21475   2.22078   2.27480   2.28857
  Beta virt. eigenvalues --    2.29319   2.30407   2.34594   2.36791   2.42380
  Beta virt. eigenvalues --    2.42410   2.43053   2.43312   2.48271   2.52301
  Beta virt. eigenvalues --    2.53527   2.57796   2.59333   2.64462   2.68086
  Beta virt. eigenvalues --    2.69140   2.71199   2.75902   2.77525   2.78741
  Beta virt. eigenvalues --    2.84172   2.88230   2.96795   3.00782   3.04131
  Beta virt. eigenvalues --    3.05934   3.07095   3.13980   3.19582   3.24812
  Beta virt. eigenvalues --    3.31227   3.33565   3.43830   3.90907   4.05909
  Beta virt. eigenvalues --    4.08155   4.13441   4.15851   4.20063   4.26414
  Beta virt. eigenvalues --    4.32778   4.40590   4.46945   4.54644   4.79799
     Alpha Molecular Orbital Coefficients:
                           1         2         3         4         5
                           O         O         O         O         O
     Eigenvalues --   -19.56175 -19.45147 -19.44121 -19.41133 -14.74954
   1 1   C  1S         -0.00006  -0.00001   0.00000   0.00000  -0.00001
   2        2S         -0.00002  -0.00002   0.00002   0.00001  -0.00001
   3        2PX        -0.00001  -0.00000  -0.00001   0.00001  -0.00006
   4        2PY        -0.00051  -0.00001   0.00001  -0.00001   0.00009
   5        2PZ         0.00000   0.00000   0.00000  -0.00000  -0.00000
   6        3S          0.00215   0.00025  -0.00043   0.00003  -0.00012
   7        3PX         0.00173   0.00024  -0.00032  -0.00023   0.00079
   8        3PY        -0.00016   0.00010  -0.00005   0.00011   0.00010
   9        3PZ         0.00000  -0.00000  -0.00000   0.00000   0.00000
  10        4S          0.01106   0.02351  -0.00287  -0.00735  -0.02073
  11        4PX         0.02335   0.00347   0.00721  -0.01255  -0.01057
  12        4PY        -0.01338   0.00155  -0.00296   0.00378   0.00400
  13        4PZ         0.00001  -0.00000   0.00000  -0.00000  -0.00000
  14        5XX        -0.00004  -0.00001  -0.00004   0.00000   0.00001
  15        5YY         0.00034  -0.00002   0.00000  -0.00000  -0.00010
  16        5ZZ        -0.00016  -0.00001   0.00001   0.00000  -0.00004
  17        5XY        -0.00001   0.00000  -0.00000   0.00000   0.00002
  18        5XZ         0.00000   0.00000  -0.00000  -0.00000  -0.00000
  19        5YZ        -0.00000  -0.00000  -0.00000   0.00000   0.00000
  20 2   O  1S          0.99208  -0.00001  -0.00001   0.00000  -0.00003
  21        2S          0.02602  -0.00002  -0.00004   0.00001   0.00022
  22        2PX         0.00113   0.00000  -0.00001   0.00000   0.00029
  23        2PY         0.00088   0.00000  -0.00000   0.00000  -0.00010
  24        2PZ        -0.00000   0.00000   0.00000  -0.00000   0.00000
  25        3S          0.01839   0.00016   0.00025  -0.00002  -0.00028
  26        3PX        -0.00119  -0.00003   0.00006   0.00004   0.00007
  27        3PY        -0.00122  -0.00001   0.00005  -0.00003   0.00023
  28        3PZ         0.00000  -0.00000  -0.00000   0.00000  -0.00000
  29        4S         -0.02350  -0.00090  -0.00118   0.00062   0.00328
  30        4PX        -0.00414  -0.00000  -0.00032   0.00013   0.00026
  31        4PY         0.00154   0.00007  -0.00026   0.00019   0.00067
  32        4PZ        -0.00000   0.00000   0.00000  -0.00000  -0.00000
  33        5XX        -0.00985  -0.00002  -0.00002   0.00001   0.00005
  34        5YY        -0.00990  -0.00001  -0.00003   0.00001   0.00012
  35        5ZZ        -0.00951  -0.00001  -0.00003   0.00001   0.00005
  36        5XY        -0.00002  -0.00001   0.00001  -0.00000  -0.00000
  37        5XZ        -0.00000   0.00000   0.00000  -0.00000   0.00000
  38        5YZ         0.00000   0.00000   0.00000  -0.00000  -0.00000
  39 3   C  1S         -0.00000  -0.00001   0.00001  -0.00002   0.00002
  40        2S          0.00009  -0.00002   0.00003  -0.00007   0.00039
  41        2PX         0.00005  -0.00002  -0.00002  -0.00000  -0.00010
  42        2PY         0.00002   0.00001  -0.00000  -0.00000  -0.00017
  43        2PZ         0.00000   0.00000   0.00000   0.00000   0.00000
  44        3S         -0.00003  -0.00015  -0.00068   0.00048   0.00099
  45        3PX        -0.00089  -0.00022   0.00039  -0.00016  -0.00082
  46        3PY         0.00034   0.00031   0.00006   0.00027   0.00008
  47        3PZ        -0.00000  -0.00000   0.00000  -0.00000   0.00000
  48        4S         -0.03281   0.00969  -0.02562   0.02177  -0.00492
  49        4PX         0.02637   0.00638   0.00406  -0.00524  -0.01358
  50        4PY        -0.00090   0.00203  -0.00650   0.00452  -0.00828
  51        4PZ         0.00000   0.00000   0.00000  -0.00000   0.00000
  52        5XX        -0.00019  -0.00004  -0.00001  -0.00006  -0.00012
  53        5YY        -0.00002  -0.00003   0.00005  -0.00003  -0.00023
  54        5ZZ        -0.00002  -0.00001   0.00002  -0.00002  -0.00010
  55        5XY        -0.00005  -0.00000   0.00006  -0.00001  -0.00026
  56        5XZ         0.00000   0.00000  -0.00000   0.00000   0.00000
  57        5YZ        -0.00000   0.00000   0.00000   0.00000   0.00000
  58 4   C  1S          0.00002   0.00001  -0.00000  -0.00000  -0.00001
  59        2S          0.00024   0.00004  -0.00007  -0.00000   0.00005
  60        2PX         0.00004   0.00000   0.00003  -0.00002  -0.00001
  61        2PY         0.00005   0.00000   0.00003   0.00001   0.00009
  62        2PZ        -0.00000   0.00000  -0.00000   0.00000  -0.00000
  63        3S         -0.00222  -0.00060   0.00044  -0.00009  -0.00103
  64        3PX         0.00081   0.00005  -0.00025  -0.00005   0.00023
  65        3PY         0.00081   0.00018  -0.00056   0.00002   0.00045
  66        3PZ        -0.00000  -0.00000   0.00000  -0.00000  -0.00000
  67        4S          0.00078  -0.01624   0.01224   0.00240   0.02523
  68        4PX        -0.00185   0.01016   0.00173  -0.00328   0.00018
  69        4PY         0.00031   0.00264  -0.00282  -0.00060  -0.00408
  70        4PZ        -0.00000   0.00000   0.00000  -0.00000   0.00000
  71        5XX        -0.00008   0.00000   0.00007  -0.00001  -0.00001
  72        5YY        -0.00017   0.00001   0.00005  -0.00000  -0.00016
  73        5ZZ         0.00002   0.00002   0.00001   0.00000  -0.00004
  74        5XY        -0.00012  -0.00000   0.00003   0.00000   0.00000
  75        5XZ         0.00000  -0.00000   0.00000  -0.00000  -0.00000
  76        5YZ         0.00000   0.00000  -0.00000   0.00000   0.00000
  77 5   H  1S          0.00006   0.00001   0.00003  -0.00000   0.00003
  78        2S         -0.00027  -0.00008   0.00053   0.00007  -0.00016
  79        3PX        -0.00003   0.00000   0.00003   0.00000  -0.00003
  80        3PY        -0.00005  -0.00000   0.00002  -0.00000  -0.00003
  81        3PZ         0.00000   0.00000   0.00000   0.00000   0.00000
  82 6   N  1S         -0.00003  -0.00000   0.00000  -0.00000   0.99194
  83        2S          0.00001  -0.00001   0.00000  -0.00001   0.03703
  84        2PX        -0.00032  -0.00000   0.00001  -0.00001  -0.00057
  85        2PY         0.00014  -0.00000  -0.00000  -0.00001   0.00217
  86        2PZ        -0.00000  -0.00000   0.00000  -0.00000  -0.00000
  87        3S         -0.00011   0.00013   0.00010   0.00005   0.00731
  88        3PX        -0.00011   0.00014  -0.00003   0.00018   0.00066
  89        3PY         0.00022   0.00008   0.00003   0.00004  -0.00198
  90        3PZ        -0.00000   0.00000  -0.00000   0.00000   0.00000
  91        4S          0.02569   0.00152   0.00240  -0.00005  -0.01499
  92        4PX        -0.00516  -0.00103   0.00039  -0.00025  -0.00209
  93        4PY         0.00402   0.00004   0.00121  -0.00034  -0.00063
  94        4PZ        -0.00000  -0.00000   0.00000  -0.00000   0.00000
  95        5XX         0.00036   0.00000  -0.00001  -0.00000  -0.00992
  96        5YY         0.00006   0.00001  -0.00001   0.00001  -0.01002
  97        5ZZ        -0.00009   0.00000   0.00001  -0.00000  -0.00986
  98        5XY        -0.00022   0.00001  -0.00001   0.00001   0.00012
  99        5XZ         0.00000  -0.00000   0.00000  -0.00000  -0.00000
 100        5YZ        -0.00000  -0.00000   0.00000  -0.00000   0.00000
 101 7   C  1S          0.00001  -0.00000  -0.00000   0.00000  -0.00000
 102        2S          0.00014  -0.00001  -0.00001   0.00002  -0.00003
 103        2PX         0.00003  -0.00001  -0.00001  -0.00001   0.00001
 104        2PY        -0.00004   0.00000   0.00001  -0.00000  -0.00002
 105        2PZ         0.00000  -0.00000  -0.00000  -0.00000   0.00000
 106        3S          0.00031   0.00009  -0.00003  -0.00023   0.00047
 107        3PX         0.00025   0.00002   0.00006  -0.00008   0.00019
 108        3PY        -0.00011  -0.00012  -0.00004   0.00012  -0.00002
 109        3PZ        -0.00000   0.00000   0.00000  -0.00000  -0.00000
 110        4S          0.02545  -0.00073   0.01088  -0.01376  -0.00614
 111        4PX         0.00407  -0.00004   0.00200  -0.00215  -0.00066
 112        4PY        -0.00148   0.00012  -0.00097   0.00144   0.00047
 113        4PZ        -0.00000   0.00000   0.00000  -0.00000  -0.00000
 114        5XX        -0.00000  -0.00000   0.00001  -0.00000   0.00001
 115        5YY        -0.00007  -0.00000  -0.00001   0.00001   0.00001
 116        5ZZ         0.00002   0.00000  -0.00001   0.00000  -0.00000
 117        5XY         0.00003  -0.00001  -0.00000   0.00000  -0.00001
 118        5XZ        -0.00000  -0.00000   0.00000  -0.00000   0.00000
 119        5YZ         0.00000   0.00000   0.00000  -0.00000  -0.00000
 120 8   H  1S         -0.00000  -0.00001   0.00000  -0.00000  -0.00001
 121        2S          0.00014   0.00012   0.00004  -0.00005  -0.00014
 122        3PX        -0.00002   0.00000   0.00000   0.00000  -0.00001
 123        3PY        -0.00001  -0.00001  -0.00000   0.00000   0.00001
 124        3PZ         0.00000  -0.00000   0.00000  -0.00000  -0.00000
 125 9   H  1S         -0.00001   0.00001   0.00000   0.00001  -0.00000
 126        2S          0.00031  -0.00016  -0.00000   0.00001  -0.00003
 127        3PX         0.00004  -0.00000  -0.00000   0.00000   0.00000
 128        3PY        -0.00004   0.00000   0.00000  -0.00000   0.00000
 129        3PZ         0.00001  -0.00000   0.00000   0.00000  -0.00000
 130 10  H  1S         -0.00001   0.00001   0.00000   0.00001  -0.00000
 131        2S          0.00031  -0.00016  -0.00000   0.00001  -0.00003
 132        3PX         0.00004  -0.00000  -0.00000   0.00000   0.00000
 133        3PY        -0.00004   0.00000   0.00000  -0.00000   0.00000
 134        3PZ        -0.00001   0.00000  -0.00000  -0.00000   0.00000
 135 11  N  1S         -0.00001   0.00001   0.00003   0.00002  -0.00006
 136        2S         -0.00007   0.00005   0.00016   0.00007   0.00003
 137        2PX        -0.00000   0.00005   0.00001   0.00005   0.00000
 138        2PY         0.00001   0.00001   0.00002  -0.00002  -0.00005
 139        2PZ        -0.00000  -0.00000  -0.00000   0.00000  -0.00000
 140        3S          0.00065  -0.00046  -0.00129  -0.00052   0.00052
 141        3PX        -0.00051  -0.00072  -0.00026  -0.00028   0.00033
 142        3PY         0.00009  -0.00017  -0.00007  -0.00019   0.00054
 143        3PZ         0.00000   0.00000   0.00000  -0.00000   0.00000
 144        4S         -0.00502  -0.00004   0.00166   0.00418   0.00660
 145        4PX         0.00128   0.00126  -0.00035   0.00476  -0.00297
 146        4PY         0.00151   0.00019   0.00182  -0.00124  -0.00111
 147        4PZ        -0.00000  -0.00000  -0.00000  -0.00000   0.00000
 148        5XX         0.00003   0.00001   0.00018   0.00010  -0.00009
 149        5YY        -0.00004   0.00005  -0.00012   0.00002   0.00001
 150        5ZZ        -0.00003   0.00003   0.00006   0.00007  -0.00000
 151        5XY        -0.00001  -0.00002   0.00004  -0.00004  -0.00010
 152        5XZ        -0.00000  -0.00000  -0.00000  -0.00000   0.00000
 153        5YZ        -0.00000   0.00000  -0.00000  -0.00000   0.00000
 154 12  H  1S         -0.00003   0.00002   0.00007   0.00008   0.00006
 155        2S          0.00064   0.00011   0.00029  -0.00052  -0.00011
 156        3PX        -0.00000   0.00002  -0.00006  -0.00004  -0.00003
 157        3PY         0.00002  -0.00000   0.00003  -0.00003  -0.00004
 158        3PZ         0.00000  -0.00000   0.00000  -0.00000  -0.00000
 159 13  C  1S          0.00000   0.00001  -0.00002   0.00002   0.00001
 160        2S          0.00002   0.00014   0.00046   0.00015   0.00005
 161        2PX        -0.00002  -0.00003  -0.00007  -0.00000  -0.00001
 162        2PY         0.00001   0.00003   0.00024  -0.00001   0.00001
 163        2PZ        -0.00000   0.00000   0.00000   0.00000   0.00000
 164        3S         -0.00016   0.00022   0.00004  -0.00064  -0.00046
 165        3PX         0.00013   0.00044   0.00005  -0.00024   0.00043
 166        3PY        -0.00033  -0.00113  -0.00158  -0.00042   0.00072
 167        3PZ        -0.00000  -0.00000  -0.00000  -0.00000   0.00000
 168        4S         -0.01387  -0.00803   0.00264  -0.02019   0.00907
 169        4PX        -0.00105   0.01318  -0.00512  -0.00196  -0.00386
 170        4PY         0.00250  -0.00038   0.00328   0.00569  -0.00117
 171        4PZ         0.00000  -0.00000   0.00000   0.00000  -0.00000
 172        5XX         0.00000  -0.00007  -0.00014   0.00005  -0.00002
 173        5YY        -0.00000   0.00000  -0.00064  -0.00004   0.00005
 174        5ZZ         0.00001   0.00002  -0.00019   0.00003   0.00001
 175        5XY         0.00000  -0.00001   0.00012   0.00009   0.00001
 176        5XZ         0.00000   0.00000   0.00000   0.00000   0.00000
 177        5YZ        -0.00000   0.00000  -0.00000  -0.00000   0.00000
 178 14  O  1S         -0.00000  -0.00022   0.99211  -0.00002   0.00001
 179        2S         -0.00002   0.00007   0.02611   0.00004   0.00005
 180        2PX        -0.00001   0.00004   0.00024   0.00001  -0.00000
 181        2PY        -0.00001   0.00000  -0.00153  -0.00003  -0.00001
 182        2PZ        -0.00000   0.00000  -0.00000  -0.00000   0.00000
 183        3S          0.00021  -0.00026   0.01839   0.00001  -0.00034
 184        3PX         0.00002  -0.00000  -0.00006  -0.00002  -0.00010
 185        3PY        -0.00004  -0.00016   0.00034   0.00001   0.00013
 186        3PZ        -0.00000  -0.00000   0.00000   0.00000   0.00000
 187        4S          0.00000   0.00375  -0.00963   0.00086  -0.00033
 188        4PX         0.00013   0.00093   0.00049   0.00006  -0.00003
 189        4PY        -0.00011  -0.00099   0.00032  -0.00059  -0.00006
 190        4PZ         0.00000   0.00000   0.00000  -0.00000   0.00000
 191        5XX        -0.00001   0.00013  -0.00953   0.00000   0.00002
 192        5YY        -0.00000   0.00007  -0.00935   0.00004   0.00001
 193        5ZZ         0.00000   0.00008  -0.00945   0.00003   0.00004
 194        5XY        -0.00000   0.00001  -0.00006   0.00003   0.00002
 195        5XZ        -0.00000  -0.00000  -0.00000   0.00000   0.00000
 196        5YZ        -0.00000  -0.00000   0.00000  -0.00000  -0.00000
 197 15  C  1S          0.00000  -0.00005   0.00001  -0.00002  -0.00000
 198        2S          0.00001   0.00019   0.00012   0.00041  -0.00001
 199        2PX         0.00003   0.00035   0.00002   0.00005   0.00000
 200        2PY         0.00000   0.00030   0.00002  -0.00024  -0.00001
 201        2PZ        -0.00000   0.00000  -0.00000  -0.00000  -0.00000
 202        3S         -0.00017   0.00056  -0.00058   0.00074   0.00043
 203        3PX        -0.00004   0.00075   0.00021   0.00026  -0.00007
 204        3PY        -0.00000  -0.00093   0.00048   0.00114  -0.00046
 205        3PZ         0.00000  -0.00000   0.00000   0.00000  -0.00000
 206        4S          0.00541  -0.00697   0.00374   0.01796   0.00132
 207        4PX        -0.00086   0.00074  -0.00023  -0.00477  -0.00009
 208        4PY         0.00092   0.00064  -0.00038  -0.00227   0.00043
 209        4PZ         0.00000  -0.00000   0.00000   0.00000   0.00000
 210        5XX         0.00000   0.00003   0.00003  -0.00013   0.00000
 211        5YY         0.00001   0.00002  -0.00006  -0.00065   0.00001
 212        5ZZ        -0.00000  -0.00018   0.00002  -0.00021  -0.00001
 213        5XY         0.00000   0.00012   0.00009   0.00010  -0.00000
 214        5XZ        -0.00000  -0.00000   0.00000   0.00000  -0.00000
 215        5YZ         0.00000   0.00000  -0.00000  -0.00000   0.00000
 216 16  O  1S          0.00000  -0.00009   0.00004   0.99213   0.00001
 217        2S          0.00001   0.00019   0.00004   0.02615   0.00006
 218        2PX         0.00000   0.00001  -0.00002  -0.00034  -0.00000
 219        2PY         0.00000   0.00001   0.00002   0.00148   0.00001
 220        2PZ         0.00000   0.00000   0.00000   0.00000  -0.00000
 221        3S         -0.00001  -0.00100   0.00007   0.01797  -0.00043
 222        3PX        -0.00002  -0.00012   0.00009  -0.00008   0.00003
 223        3PY        -0.00002  -0.00036   0.00006  -0.00052  -0.00016
 224        3PZ        -0.00000  -0.00000  -0.00000  -0.00000  -0.00000
 225        4S          0.00025  -0.00027   0.00059  -0.01062  -0.00006
 226        4PX         0.00011   0.00046  -0.00045   0.00118   0.00012
 227        4PY         0.00007  -0.00023   0.00008  -0.00041  -0.00001
 228        4PZ         0.00000   0.00000   0.00000  -0.00000  -0.00000
 229        5XX        -0.00000   0.00009  -0.00001  -0.00947   0.00003
 230        5YY         0.00000  -0.00004   0.00005  -0.00932   0.00002
 231        5ZZ         0.00001   0.00012   0.00003  -0.00942   0.00004
 232        5XY         0.00000  -0.00008   0.00002  -0.00007   0.00001
 233        5XZ        -0.00000  -0.00000   0.00000   0.00000   0.00000
 234        5YZ        -0.00000  -0.00000  -0.00000   0.00000  -0.00000
 235 17  O  1S          0.00000   0.99212   0.00029   0.00015  -0.00000
 236        2S         -0.00000   0.02631   0.00016   0.00017  -0.00000
 237        2PX        -0.00001   0.00024  -0.00002   0.00001  -0.00000
 238        2PY        -0.00001  -0.00132   0.00001  -0.00001   0.00000
 239        2PZ         0.00000  -0.00000   0.00000  -0.00000   0.00000
 240        3S          0.00003   0.01715  -0.00088  -0.00081   0.00011
 241        3PX         0.00007  -0.00041   0.00006   0.00001   0.00001
 242        3PY         0.00001   0.00118   0.00009   0.00022  -0.00002
 243        3PZ        -0.00000   0.00000  -0.00000   0.00000  -0.00000
 244        4S          0.00008  -0.00800   0.00115   0.00024  -0.00005
 245        4PX        -0.00030   0.00273  -0.00066   0.00056  -0.00003
 246        4PY        -0.00015  -0.00109   0.00006  -0.00016   0.00010
 247        4PZ         0.00000  -0.00000   0.00000  -0.00000   0.00000
 248        5XX         0.00000  -0.00950   0.00013   0.00019  -0.00000
 249        5YY        -0.00000  -0.00959   0.00010  -0.00010  -0.00000
 250        5ZZ        -0.00001  -0.00937   0.00013   0.00008   0.00001
 251        5XY        -0.00001  -0.00006  -0.00004   0.00002  -0.00000
 252        5XZ        -0.00000   0.00000  -0.00000  -0.00000  -0.00000
 253        5YZ         0.00000  -0.00000   0.00000  -0.00000  -0.00000
 254 18  H  1S         -0.00001   0.00053  -0.00001   0.00008  -0.00001
 255        2S         -0.00005  -0.00158   0.00019  -0.00009   0.00001
 256        3PX         0.00001   0.00001   0.00001   0.00000   0.00001
 257        3PY         0.00000  -0.00003  -0.00001  -0.00006  -0.00000
 258        3PZ        -0.00000  -0.00000  -0.00000  -0.00000  -0.00000
                           6         7         8         9        10
                           O         O         O         O         O
     Eigenvalues --   -14.70084 -10.58621 -10.58411 -10.58305 -10.57593
   1 1   C  1S          0.00000   0.00039  -0.00087   0.99199   0.00008
   2        2S          0.00000   0.00008  -0.00013   0.05774  -0.00008
   3        2PX        -0.00002  -0.00002  -0.00003   0.00037  -0.00001
   4        2PY         0.00001   0.00001  -0.00000  -0.00159   0.00002
   5        2PZ        -0.00000   0.00000   0.00000   0.00000   0.00000
   6        3S         -0.00042  -0.00219   0.00033  -0.01901   0.00063
   7        3PX         0.00024   0.00023   0.00011  -0.00236   0.00057
   8        3PY        -0.00033   0.00065  -0.00093   0.00084  -0.00046
   9        3PZ         0.00000  -0.00000   0.00000  -0.00000   0.00000
  10        4S         -0.00224  -0.02062   0.01154  -0.02007   0.01281
  11        4PX         0.00477  -0.00421   0.01918   0.00207   0.01076
  12        4PY        -0.00276   0.00024  -0.00723  -0.00336  -0.00379
  13        4PZ         0.00000  -0.00000   0.00000   0.00000   0.00000
  14        5XX         0.00000   0.00007  -0.00003  -0.01232  -0.00001
  15        5YY         0.00001  -0.00002   0.00002  -0.01191  -0.00001
  16        5ZZ        -0.00001   0.00002  -0.00003  -0.01245  -0.00004
  17        5XY         0.00000  -0.00003   0.00000   0.00000  -0.00000
  18        5XZ         0.00000   0.00000  -0.00000  -0.00000   0.00000
  19        5YZ        -0.00000   0.00000  -0.00000  -0.00000  -0.00000
  20 2   O  1S          0.00000  -0.00002   0.00000  -0.00000  -0.00000
  21        2S          0.00002  -0.00013   0.00001   0.00044  -0.00002
  22        2PX         0.00000   0.00003  -0.00000  -0.00000  -0.00001
  23        2PY        -0.00000  -0.00003   0.00002   0.00012  -0.00001
  24        2PZ         0.00000   0.00000  -0.00000  -0.00000   0.00000
  25        3S         -0.00022   0.00067  -0.00010  -0.00064  -0.00008
  26        3PX        -0.00007   0.00001   0.00003   0.00031  -0.00001
  27        3PY        -0.00001   0.00057  -0.00035  -0.00096  -0.00006
  28        3PZ        -0.00000  -0.00000   0.00000   0.00000  -0.00000
  29        4S         -0.00055  -0.00030  -0.00359   0.00615  -0.00056
  30        4PX        -0.00021   0.00022  -0.00109   0.00074  -0.00008
  31        4PY         0.00014   0.00052  -0.00104   0.00587  -0.00083
  32        4PZ         0.00000   0.00000   0.00000  -0.00000   0.00000
  33        5XX         0.00002   0.00002   0.00002   0.00037  -0.00000
  34        5YY         0.00001  -0.00001  -0.00002  -0.00035  -0.00002
  35        5ZZ         0.00000  -0.00010   0.00002   0.00043  -0.00002
  36        5XY        -0.00001   0.00005  -0.00004  -0.00004  -0.00001
  37        5XZ         0.00000  -0.00000   0.00000   0.00000   0.00000
  38        5YZ        -0.00000  -0.00000   0.00000   0.00000   0.00000
  39 3   C  1S         -0.00000   0.99200   0.00160  -0.00038   0.00001
  40        2S          0.00009   0.05801  -0.00006  -0.00008  -0.00005
  41        2PX         0.00039   0.00034   0.00001   0.00002  -0.00007
  42        2PY        -0.00007  -0.00097  -0.00000   0.00003   0.00002
  43        2PZ        -0.00000   0.00000   0.00000  -0.00000  -0.00000
  44        3S          0.00031  -0.01925   0.00033  -0.00197   0.00005
  45        3PX         0.00079   0.00065   0.00107  -0.00151   0.00128
  46        3PY         0.00000  -0.00107   0.00132   0.00068   0.00026
  47        3PZ         0.00000   0.00000  -0.00000   0.00000  -0.00000
  48        4S          0.00208  -0.06310   0.00006  -0.00699  -0.00484
  49        4PX         0.00399  -0.00635   0.01785   0.00433   0.01016
  50        4PY         0.00208  -0.01733   0.00016   0.00050  -0.00044
  51        4PZ        -0.00000   0.00001  -0.00000  -0.00000   0.00000
  52        5XX         0.00026  -0.01186  -0.00000   0.00010  -0.00001
  53        5YY        -0.00001  -0.01212  -0.00006   0.00003  -0.00006
  54        5ZZ        -0.00008  -0.01250  -0.00007   0.00001  -0.00004
  55        5XY        -0.00004   0.00024  -0.00006  -0.00003  -0.00003
  56        5XZ        -0.00000  -0.00000   0.00000   0.00000  -0.00000
  57        5YZ        -0.00000  -0.00000   0.00000  -0.00000   0.00000
  58 4   C  1S         -0.00001   0.00260  -0.00002   0.00392   0.00000
  59        2S          0.00002   0.00007   0.00002   0.00005   0.00001
  60        2PX         0.00002   0.00010   0.00002   0.00004   0.00000
  61        2PY         0.00000  -0.00000   0.00004   0.00006  -0.00003
  62        2PZ         0.00000  -0.00000  -0.00000   0.00000   0.00000
  63        3S          0.00040   0.00311  -0.00019   0.00419  -0.00010
  64        3PX        -0.00027   0.00081  -0.00105  -0.00241   0.00003
  65        3PY        -0.00019  -0.00264  -0.00016  -0.00074   0.00020
  66        3PZ        -0.00000   0.00000   0.00000  -0.00000  -0.00000
  67        4S         -0.00373   0.05819  -0.01783   0.01473  -0.00679
  68        4PX        -0.00102   0.00631  -0.00046  -0.00855   0.00469
  69        4PY         0.00076  -0.00938   0.00269  -0.00192   0.00149
  70        4PZ        -0.00000   0.00001  -0.00000  -0.00000   0.00000
  71        5XX        -0.00007   0.00004  -0.00005  -0.00012  -0.00002
  72        5YY        -0.00002  -0.00004  -0.00004  -0.00023   0.00003
  73        5ZZ        -0.00000  -0.00004  -0.00000  -0.00012  -0.00001
  74        5XY         0.00002  -0.00008   0.00001  -0.00004  -0.00000
  75        5XZ        -0.00000   0.00000  -0.00000  -0.00000  -0.00000
  76        5YZ         0.00000   0.00000  -0.00000   0.00000  -0.00000
  77 5   H  1S          0.00002   0.00006   0.00004   0.00003   0.00001
  78        2S          0.00010   0.00036   0.00035  -0.00015  -0.00037
  79        3PX         0.00002  -0.00006   0.00000   0.00005  -0.00000
  80        3PY        -0.00002  -0.00000  -0.00002  -0.00005   0.00002
  81        3PZ         0.00000  -0.00000   0.00000   0.00000  -0.00000
  82 6   N  1S          0.00006  -0.00017  -0.00003  -0.00001  -0.00001
  83        2S          0.00005   0.00009  -0.00014  -0.00010  -0.00004
  84        2PX        -0.00001  -0.00004  -0.00003  -0.00003  -0.00001
  85        2PY        -0.00002  -0.00008  -0.00002   0.00002  -0.00001
  86        2PZ         0.00000   0.00000   0.00000  -0.00000   0.00000
  87        3S          0.00018   0.00104   0.00147   0.00016   0.00048
  88        3PX        -0.00029  -0.00012   0.00068   0.00086   0.00014
  89        3PY         0.00014   0.00001   0.00074   0.00013   0.00046
  90        3PZ        -0.00000  -0.00000  -0.00000  -0.00000  -0.00000
  91        4S          0.00178  -0.00228   0.01162  -0.00219   0.00311
  92        4PX         0.00011  -0.00262   0.00288  -0.00470   0.00183
  93        4PY        -0.00006   0.00228   0.00243  -0.00273   0.00048
  94        4PZ        -0.00000  -0.00000  -0.00000   0.00000  -0.00000
  95        5XX        -0.00011  -0.00008  -0.00007  -0.00008  -0.00002
  96        5YY         0.00001  -0.00028  -0.00002   0.00008   0.00003
  97        5ZZ         0.00001   0.00016  -0.00008  -0.00008  -0.00003
  98        5XY        -0.00006  -0.00022   0.00006  -0.00001   0.00003
  99        5XZ         0.00000   0.00000  -0.00000   0.00000  -0.00000
 100        5YZ         0.00000   0.00000  -0.00000  -0.00000  -0.00000
 101 7   C  1S         -0.00001  -0.00002  -0.00001   0.00126  -0.00001
 102        2S         -0.00004  -0.00009  -0.00005  -0.00009  -0.00004
 103        2PX         0.00000  -0.00001   0.00000   0.00001   0.00000
 104        2PY        -0.00001  -0.00000   0.00001  -0.00007   0.00001
 105        2PZ         0.00000  -0.00000   0.00000   0.00000  -0.00000
 106        3S          0.00044   0.00071   0.00044   0.00217   0.00048
 107        3PX         0.00024   0.00033   0.00028   0.00088   0.00024
 108        3PY         0.00000  -0.00034  -0.00005   0.00045  -0.00018
 109        3PZ        -0.00000   0.00000   0.00000  -0.00000   0.00000
 110        4S          0.00736   0.00360   0.02047   0.00670   0.01058
 111        4PX         0.00135   0.00123   0.00318   0.00074   0.00173
 112        4PY        -0.00059  -0.00015  -0.00198  -0.00062  -0.00083
 113        4PZ         0.00000   0.00000   0.00000  -0.00000   0.00000
 114        5XX         0.00001  -0.00001   0.00001  -0.00012   0.00000
 115        5YY        -0.00001  -0.00001  -0.00003  -0.00013  -0.00002
 116        5ZZ        -0.00001  -0.00004  -0.00001  -0.00010  -0.00001
 117        5XY        -0.00000  -0.00003   0.00000   0.00004  -0.00001
 118        5XZ         0.00000   0.00000   0.00000   0.00000   0.00000
 119        5YZ        -0.00000  -0.00000   0.00000  -0.00000   0.00000
 120 8   H  1S         -0.00002  -0.00003  -0.00001  -0.00009  -0.00001
 121        2S         -0.00004   0.00006   0.00004  -0.00073   0.00012
 122        3PX        -0.00000  -0.00001   0.00000   0.00001  -0.00000
 123        3PY         0.00000  -0.00000  -0.00001  -0.00000  -0.00001
 124        3PZ        -0.00000   0.00000   0.00000  -0.00000   0.00000
 125 9   H  1S         -0.00001  -0.00001  -0.00002  -0.00004  -0.00001
 126        2S          0.00003  -0.00011   0.00011  -0.00021   0.00004
 127        3PX        -0.00000  -0.00000  -0.00000   0.00001  -0.00000
 128        3PY        -0.00000   0.00001   0.00000  -0.00001   0.00000
 129        3PZ         0.00000   0.00000   0.00000   0.00003   0.00000
 130 10  H  1S         -0.00001  -0.00001  -0.00002  -0.00004  -0.00001
 131        2S          0.00003  -0.00010   0.00011  -0.00020   0.00004
 132        3PX        -0.00000  -0.00000  -0.00000   0.00001  -0.00000
 133        3PY        -0.00000   0.00001   0.00000  -0.00001   0.00000
 134        3PZ        -0.00000  -0.00000  -0.00000  -0.00003  -0.00000
 135 11  N  1S          0.99185  -0.00010  -0.00014  -0.00004  -0.00002
 136        2S          0.03737   0.00011   0.00006  -0.00017  -0.00013
 137        2PX        -0.00018  -0.00006  -0.00005   0.00004  -0.00003
 138        2PY         0.00014  -0.00003  -0.00002  -0.00001   0.00001
 139        2PZ         0.00000  -0.00000  -0.00000   0.00000  -0.00000
 140        3S          0.00681   0.00127   0.00250   0.00180   0.00053
 141        3PX         0.00053   0.00109   0.00114  -0.00087   0.00057
 142        3PY        -0.00057   0.00054  -0.00017  -0.00002   0.00047
 143        3PZ        -0.00000  -0.00000   0.00000  -0.00000   0.00000
 144        4S         -0.00625   0.01290   0.00672   0.00325  -0.00338
 145        4PX         0.00030  -0.01671   0.01468  -0.00490   0.00079
 146        4PY        -0.00129   0.00194   0.00673  -0.00213   0.00324
 147        4PZ        -0.00000   0.00000  -0.00000   0.00000  -0.00000
 148        5XX        -0.01026  -0.00036  -0.00020  -0.00004  -0.00002
 149        5YY        -0.01022   0.00004  -0.00029  -0.00007   0.00003
 150        5ZZ        -0.00998   0.00011   0.00012  -0.00010  -0.00010
 151        5XY        -0.00003   0.00009  -0.00028  -0.00001   0.00003
 152        5XZ         0.00000   0.00000  -0.00000   0.00000  -0.00000
 153        5YZ        -0.00000  -0.00000  -0.00000   0.00000   0.00000
 154 12  H  1S          0.00043  -0.00005  -0.00015   0.00002  -0.00008
 155        2S         -0.00112   0.00018  -0.00052  -0.00044   0.00044
 156        3PX        -0.00006  -0.00007  -0.00002   0.00003  -0.00005
 157        3PY         0.00012   0.00004   0.00006  -0.00000  -0.00000
 158        3PZ         0.00000   0.00000   0.00000  -0.00000  -0.00000
 159 13  C  1S          0.00001  -0.00166   0.99206   0.00084  -0.01470
 160        2S          0.00011  -0.00022   0.05778   0.00001  -0.00100
 161        2PX        -0.00030   0.00005  -0.00099   0.00000  -0.00006
 162        2PY        -0.00026   0.00006   0.00011  -0.00003  -0.00002
 163        2PZ        -0.00000  -0.00000   0.00000  -0.00000  -0.00000
 164        3S          0.00010   0.00071  -0.01887   0.00006   0.00343
 165        3PX        -0.00053  -0.00054  -0.00053  -0.00004   0.00359
 166        3PY        -0.00019   0.00270   0.00527   0.00004   0.00036
 167        3PZ         0.00000   0.00000   0.00000   0.00000  -0.00000
 168        4S          0.00367   0.04330  -0.05896   0.00403   0.02033
 169        4PX         0.00229   0.00595  -0.00789  -0.00142   0.01644
 170        4PY        -0.00063  -0.00768   0.01287   0.00014  -0.00177
 171        4PZ        -0.00000  -0.00000   0.00001  -0.00000  -0.00000
 172        5XX         0.00011  -0.00003  -0.01215  -0.00008   0.00009
 173        5YY         0.00015   0.00007  -0.01109  -0.00003   0.00007
 174        5ZZ        -0.00010  -0.00005  -0.01231  -0.00004   0.00011
 175        5XY         0.00012  -0.00004   0.00006   0.00002  -0.00001
 176        5XZ         0.00000  -0.00000  -0.00000   0.00000  -0.00000
 177        5YZ         0.00000   0.00000   0.00000  -0.00000   0.00000
 178 14  O  1S          0.00001   0.00002  -0.00008  -0.00000  -0.00002
 179        2S          0.00008   0.00012   0.00068  -0.00000  -0.00009
 180        2PX        -0.00001   0.00002   0.00002   0.00000  -0.00001
 181        2PY         0.00001  -0.00001  -0.00011   0.00002   0.00001
 182        2PZ         0.00000   0.00000  -0.00000  -0.00000   0.00000
 183        3S         -0.00027  -0.00123  -0.00399  -0.00008   0.00007
 184        3PX         0.00017  -0.00014  -0.00047   0.00007  -0.00040
 185        3PY         0.00017   0.00075   0.00181  -0.00012  -0.00001
 186        3PZ         0.00000   0.00000   0.00000   0.00000  -0.00000
 187        4S          0.00098  -0.00401   0.00260   0.00069  -0.00169
 188        4PX        -0.00030   0.00045   0.00128  -0.00090  -0.00103
 189        4PY        -0.00042   0.00141  -0.00269  -0.00005   0.00045
 190        4PZ        -0.00000   0.00000  -0.00000  -0.00000   0.00000
 191        5XX         0.00004   0.00002   0.00046   0.00000  -0.00004
 192        5YY        -0.00008  -0.00003  -0.00009   0.00001   0.00001
 193        5ZZ         0.00006   0.00006   0.00054  -0.00003  -0.00013
 194        5XY        -0.00006  -0.00000   0.00016   0.00001   0.00005
 195        5XZ        -0.00000  -0.00000   0.00000   0.00000  -0.00000
 196        5YZ        -0.00000  -0.00000  -0.00000   0.00000   0.00000
 197 15  C  1S          0.00000  -0.00007   0.01453  -0.00011   0.99199
 198        2S          0.00010  -0.00007   0.00062  -0.00008   0.05724
 199        2PX         0.00003   0.00002  -0.00008   0.00006   0.00072
 200        2PY        -0.00002  -0.00000  -0.00001  -0.00001  -0.00013
 201        2PZ        -0.00000  -0.00000   0.00000  -0.00000  -0.00000
 202        3S          0.00003   0.00063   0.00465   0.00026  -0.01644
 203        3PX         0.00016  -0.00162  -0.00283  -0.00074   0.00175
 204        3PY         0.00088  -0.00038  -0.00113  -0.00016  -0.00249
 205        3PZ         0.00000   0.00000   0.00000   0.00000  -0.00000
 206        4S         -0.00525  -0.02695   0.03751  -0.00082  -0.03440
 207        4PX         0.00129   0.00597  -0.00902   0.00052   0.00687
 208        4PY        -0.00037  -0.00264   0.00208   0.00009  -0.00476
 209        4PZ        -0.00000  -0.00000   0.00000  -0.00000  -0.00000
 210        5XX        -0.00011  -0.00001  -0.00019  -0.00001  -0.01217
 211        5YY        -0.00001  -0.00008  -0.00016  -0.00003  -0.01132
 212        5ZZ        -0.00000  -0.00003  -0.00027  -0.00004  -0.01244
 213        5XY        -0.00002   0.00000   0.00002  -0.00002   0.00017
 214        5XZ         0.00000   0.00000  -0.00000  -0.00000  -0.00000
 215        5YZ        -0.00000  -0.00000   0.00000   0.00000   0.00000
 216 16  O  1S          0.00001   0.00004  -0.00002   0.00000  -0.00009
 217        2S          0.00002   0.00017  -0.00008   0.00002   0.00059
 218        2PX        -0.00002  -0.00002  -0.00001   0.00001  -0.00005
 219        2PY        -0.00000  -0.00001  -0.00000   0.00001   0.00010
 220        2PZ         0.00000   0.00000   0.00000   0.00000   0.00000
 221        3S          0.00016  -0.00118  -0.00027  -0.00019  -0.00301
 222        3PX        -0.00003   0.00023   0.00051   0.00004   0.00028
 223        3PY         0.00012   0.00014  -0.00046  -0.00002  -0.00119
 224        3PZ         0.00000  -0.00000  -0.00000  -0.00000  -0.00000
 225        4S          0.00113   0.00472  -0.00525   0.00114   0.00488
 226        4PX        -0.00032  -0.00196   0.00159  -0.00020  -0.00185
 227        4PY         0.00029   0.00073  -0.00098   0.00036   0.00216
 228        4PZ         0.00000   0.00000  -0.00000   0.00000   0.00000
 229        5XX         0.00002   0.00014  -0.00003   0.00001   0.00041
 230        5YY         0.00002   0.00015  -0.00007   0.00002  -0.00001
 231        5ZZ         0.00004   0.00005  -0.00012  -0.00001   0.00053
 232        5XY         0.00000   0.00003   0.00006   0.00002   0.00008
 233        5XZ         0.00000  -0.00000  -0.00000   0.00000   0.00000
 234        5YZ        -0.00000   0.00000   0.00000  -0.00000  -0.00000
 235 17  O  1S          0.00001  -0.00000  -0.00003   0.00000  -0.00003
 236        2S          0.00007  -0.00003  -0.00017  -0.00000   0.00032
 237        2PX        -0.00001  -0.00001   0.00001  -0.00001  -0.00002
 238        2PY        -0.00001   0.00003   0.00001   0.00001  -0.00000
 239        2PZ        -0.00000   0.00000  -0.00000   0.00000   0.00000
 240        3S         -0.00054   0.00039   0.00104   0.00008  -0.00039
 241        3PX         0.00016  -0.00004   0.00006  -0.00003   0.00013
 242        3PY         0.00009  -0.00032  -0.00019  -0.00014   0.00034
 243        3PZ        -0.00000  -0.00000  -0.00000  -0.00000   0.00000
 244        4S         -0.00022   0.00131  -0.00077   0.00058   0.00663
 245        4PX        -0.00000   0.00029   0.00029  -0.00053  -0.00104
 246        4PY         0.00009  -0.00007  -0.00070   0.00006  -0.00178
 247        4PZ        -0.00000   0.00000  -0.00000   0.00000  -0.00000
 248        5XX         0.00003  -0.00001  -0.00008   0.00001   0.00002
 249        5YY         0.00006   0.00004  -0.00007   0.00003  -0.00006
 250        5ZZ         0.00003  -0.00001  -0.00013  -0.00000   0.00038
 251        5XY        -0.00000   0.00001  -0.00001   0.00001  -0.00033
 252        5XZ         0.00000   0.00000  -0.00000  -0.00000  -0.00000
 253        5YZ         0.00000   0.00000   0.00000   0.00000  -0.00000
 254 18  H  1S         -0.00000  -0.00003  -0.00005  -0.00002   0.00015
 255        2S          0.00004  -0.00018   0.00008   0.00016  -0.00139
 256        3PX         0.00000  -0.00000  -0.00003  -0.00000  -0.00001
 257        3PY         0.00000  -0.00002  -0.00005   0.00000  -0.00004
 258        3PZ         0.00000   0.00000  -0.00000  -0.00000  -0.00000
                          11        12        13        14        15
                           O         O         O         O         O
     Eigenvalues --   -10.48755 -10.45491  -1.42573  -1.31302  -1.28357
   1 1   C  1S         -0.00428  -0.00149   0.06534   0.00248   0.00467
   2        2S         -0.00043  -0.00021  -0.11758  -0.00419  -0.00883
   3        2PX        -0.00017   0.00016  -0.02335   0.00094   0.00248
   4        2PY        -0.00007  -0.00006   0.09709   0.00423   0.00904
   5        2PZ         0.00000   0.00000  -0.00004  -0.00000  -0.00000
   6        3S          0.00828   0.00514  -0.02929   0.00469   0.00393
   7        3PX         0.00554  -0.00492   0.02383  -0.00044  -0.00186
   8        3PY        -0.00003   0.00379  -0.02799   0.00293   0.00077
   9        3PZ         0.00000  -0.00000   0.00001  -0.00000  -0.00000
  10        4S         -0.03587   0.03449  -0.40673   0.21588   0.02186
  11        4PX         0.01476  -0.02555  -0.63497  -0.02445   0.06423
  12        4PY        -0.01028   0.01734   0.15089   0.04207  -0.01948
  13        4PZ         0.00000  -0.00001  -0.00008  -0.00004   0.00002
  14        5XX        -0.00025  -0.00020   0.00702   0.00050   0.00098
  15        5YY        -0.00005  -0.00023  -0.01585  -0.00071  -0.00146
  16        5ZZ        -0.00000  -0.00006   0.01033   0.00046   0.00073
  17        5XY         0.00001   0.00008   0.00405   0.00014   0.00016
  18        5XZ        -0.00000  -0.00000  -0.00000   0.00000  -0.00000
  19        5YZ         0.00000   0.00000   0.00001   0.00000   0.00000
  20 2   O  1S          0.00001  -0.00006   0.17639   0.00707   0.01361
  21        2S          0.00003  -0.00033  -0.37918  -0.01517  -0.03015
  22        2PX         0.00004  -0.00000  -0.10629  -0.00151  -0.00142
  23        2PY         0.00006  -0.00005  -0.06187  -0.00307  -0.00671
  24        2PZ         0.00000   0.00000   0.00002   0.00000   0.00000
  25        3S         -0.00051   0.00181  -0.40448  -0.01740  -0.03349
  26        3PX        -0.00022   0.00034  -0.06525  -0.00286  -0.00245
  27        3PY        -0.00072   0.00069  -0.03697  -0.00305  -0.00482
  28        3PZ         0.00000  -0.00000   0.00001   0.00000   0.00000
  29        4S         -0.00476  -0.00311   0.22587   0.00053   0.00601
  30        4PX        -0.00207  -0.00244   0.09409   0.00479   0.00245
  31        4PY         0.00122   0.00117  -0.01001   0.00376  -0.00337
  32        4PZ         0.00000   0.00000   0.00001   0.00000   0.00000
  33        5XX         0.00009  -0.00019  -0.01131  -0.00001   0.00042
  34        5YY         0.00004  -0.00003   0.00029  -0.00002  -0.00048
  35        5ZZ        -0.00002  -0.00024   0.01418   0.00061   0.00069
  36        5XY        -0.00000   0.00002   0.00032  -0.00003   0.00010
  37        5XZ         0.00000  -0.00000  -0.00000  -0.00000   0.00000
  38        5YZ        -0.00000  -0.00000   0.00001   0.00000   0.00000
  39 3   C  1S         -0.00278  -0.00002   0.04608  -0.01431  -0.02972
  40        2S         -0.00010  -0.00009  -0.08444   0.02704   0.05564
  41        2PX         0.00008   0.00004   0.05186   0.01824   0.03361
  42        2PY        -0.00011  -0.00003   0.03688  -0.00214  -0.00504
  43        2PZ        -0.00000   0.00000  -0.00001   0.00000   0.00000
  44        3S          0.00517  -0.00059  -0.00727  -0.01623   0.00065
  45        3PX        -0.00560  -0.00204   0.00742  -0.02589  -0.01533
  46        3PY         0.00401  -0.00048  -0.00297   0.01563   0.00824
  47        3PZ        -0.00000  -0.00000   0.00000  -0.00000  -0.00000
  48        4S         -0.06742   0.01142   0.23314   0.13829  -0.10954
  49        4PX         0.01193  -0.00802  -0.28813   0.00832   0.01695
  50        4PY        -0.01299  -0.00148  -0.02605   0.02799  -0.02165
  51        4PZ         0.00001  -0.00000  -0.00001   0.00001  -0.00001
  52        5XX        -0.00018  -0.00004  -0.00374   0.00136   0.00418
  53        5YY        -0.00007   0.00001  -0.00148  -0.00120  -0.00199
  54        5ZZ         0.00006  -0.00004   0.00691  -0.00198  -0.00440
  55        5XY         0.00011   0.00002  -0.00635  -0.00019  -0.00007
  56        5XZ        -0.00000   0.00000   0.00000   0.00000  -0.00000
  57        5YZ         0.00000  -0.00000   0.00000   0.00000  -0.00000
  58 4   C  1S          0.99188   0.00010   0.02424  -0.00222  -0.00572
  59        2S          0.05838   0.00001  -0.04126   0.00459   0.00909
  60        2PX        -0.00030  -0.00004   0.01597   0.00391   0.00829
  61        2PY        -0.00082  -0.00000   0.03169  -0.00182  -0.00457
  62        2PZ         0.00000  -0.00000  -0.00001   0.00000   0.00000
  63        3S         -0.02446   0.00049  -0.03903  -0.01266   0.00445
  64        3PX         0.00255   0.00064   0.00370   0.00375   0.00701
  65        3PY         0.00792  -0.00119   0.03068   0.00879   0.00393
  66        3PZ        -0.00000   0.00000  -0.00001  -0.00000   0.00000
  67        4S          0.06682  -0.00011   0.73485  -0.17080  -0.04049
  68        4PX         0.00530   0.00376  -0.10997   0.07508  -0.01750
  69        4PY        -0.01198  -0.00243  -0.09464   0.02733   0.00563
  70        4PZ         0.00001   0.00000   0.00002   0.00001   0.00000
  71        5XX        -0.01244  -0.00001  -0.00147   0.00041   0.00057
  72        5YY        -0.01217   0.00007  -0.00236   0.00028   0.00060
  73        5ZZ        -0.01251  -0.00001   0.00305  -0.00013  -0.00083
  74        5XY         0.00022   0.00008  -0.00194  -0.00064  -0.00123
  75        5XZ        -0.00000  -0.00000   0.00000   0.00000   0.00000
  76        5YZ        -0.00000  -0.00000   0.00000  -0.00000  -0.00000
  77 5   H  1S         -0.00034   0.00005  -0.00397   0.00130   0.00305
  78        2S         -0.00157   0.00032  -0.01278  -0.00290  -0.00162
  79        3PX         0.00004  -0.00001   0.00041   0.00025   0.00050
  80        3PY         0.00017   0.00004   0.00055  -0.00010  -0.00019
  81        3PZ        -0.00000  -0.00000  -0.00000   0.00000   0.00000
  82 6   N  1S          0.00002  -0.00003   0.10102  -0.00239  -0.00704
  83        2S          0.00002  -0.00011  -0.20575   0.00390   0.01385
  84        2PX        -0.00002   0.00004   0.07882   0.00847   0.01735
  85        2PY         0.00006  -0.00002  -0.09004   0.00285   0.00803
  86        2PZ        -0.00000   0.00000   0.00004  -0.00000  -0.00000
  87        3S         -0.00080   0.00006  -0.16484   0.01310   0.02047
  88        3PX         0.00050  -0.00033   0.00854   0.00725   0.00832
  89        3PY        -0.00089  -0.00025  -0.02720   0.00291   0.00558
  90        3PZ         0.00000  -0.00000   0.00001  -0.00000  -0.00000
  91        4S          0.00554   0.00508  -0.22555  -0.02875  -0.01691
  92        4PX        -0.00302  -0.00367   0.04689  -0.02528   0.00330
  93        4PY         0.00137   0.00135  -0.02858  -0.00883  -0.00126
  94        4PZ        -0.00000  -0.00000   0.00002  -0.00000   0.00001
  95        5XX         0.00011  -0.00003  -0.00789  -0.00011  -0.00073
  96        5YY         0.00004  -0.00009   0.00037  -0.00009   0.00017
  97        5ZZ         0.00001  -0.00008   0.01101  -0.00044  -0.00077
  98        5XY         0.00000  -0.00002   0.01275   0.00155   0.00278
  99        5XZ         0.00000   0.00000  -0.00001  -0.00000  -0.00000
 100        5YZ        -0.00000   0.00000   0.00001  -0.00000  -0.00000
 101 7   C  1S         -0.00010   0.99193   0.00594   0.00046   0.00095
 102        2S         -0.00005   0.05813  -0.01282  -0.00038  -0.00138
 103        2PX         0.00001   0.00041  -0.00825  -0.00055  -0.00112
 104        2PY        -0.00001  -0.00029   0.00780   0.00056   0.00122
 105        2PZ        -0.00000   0.00000  -0.00000  -0.00000  -0.00000
 106        3S          0.00128  -0.02110   0.01965  -0.00394  -0.00453
 107        3PX         0.00040  -0.00337   0.00910  -0.00239  -0.00162
 108        3PY        -0.00073   0.00158   0.00012  -0.00010   0.00042
 109        3PZ         0.00000  -0.00000   0.00000   0.00000   0.00000
 110        4S          0.03465  -0.05226  -0.68089  -0.08904   0.06223
 111        4PX         0.00694  -0.01014  -0.10897  -0.01578   0.00773
 112        4PY        -0.00257   0.00438   0.07197   0.00696  -0.00844
 113        4PZ         0.00000  -0.00000  -0.00001   0.00001  -0.00000
 114        5XX         0.00003  -0.01247  -0.00177  -0.00015  -0.00022
 115        5YY         0.00008  -0.01225  -0.00137  -0.00001  -0.00010
 116        5ZZ        -0.00002  -0.01221   0.00009   0.00013   0.00008
 117        5XY        -0.00006   0.00011   0.00254   0.00016   0.00030
 118        5XZ         0.00000  -0.00000  -0.00000  -0.00000  -0.00000
 119        5YZ        -0.00000  -0.00000   0.00000   0.00000   0.00000
 120 8   H  1S          0.00001   0.00003  -0.00195  -0.00001  -0.00010
 121        2S          0.00023   0.00303  -0.00029   0.00081   0.00068
 122        3PX        -0.00003   0.00006   0.00019   0.00004   0.00002
 123        3PY         0.00002   0.00003  -0.00005  -0.00002  -0.00002
 124        3PZ         0.00000  -0.00000  -0.00000  -0.00000  -0.00000
 125 9   H  1S         -0.00000   0.00005  -0.00234  -0.00000  -0.00032
 126        2S         -0.00002   0.00297   0.00001  -0.00174   0.00044
 127        3PX         0.00002   0.00004  -0.00030  -0.00002  -0.00003
 128        3PY         0.00002  -0.00005  -0.00000   0.00001   0.00002
 129        3PZ        -0.00001  -0.00006  -0.00015  -0.00006  -0.00003
 130 10  H  1S         -0.00000   0.00005  -0.00234  -0.00000  -0.00032
 131        2S         -0.00002   0.00297   0.00001  -0.00174   0.00043
 132        3PX         0.00002   0.00004  -0.00030  -0.00002  -0.00003
 133        3PY         0.00002  -0.00005  -0.00000   0.00002   0.00002
 134        3PZ         0.00001   0.00006   0.00015   0.00006   0.00003
 135 11  N  1S          0.00001  -0.00002   0.00946  -0.04235  -0.06916
 136        2S         -0.00006  -0.00010  -0.01726   0.08664   0.14020
 137        2PX         0.00003   0.00002   0.00888   0.01322   0.00302
 138        2PY         0.00006  -0.00001   0.00128   0.01934   0.03584
 139        2PZ        -0.00000   0.00000  -0.00000   0.00000   0.00001
 140        3S          0.00109   0.00117  -0.03222   0.08119   0.13788
 141        3PX        -0.00165  -0.00090   0.00941  -0.03035  -0.02054
 142        3PY        -0.00090   0.00023  -0.00792   0.00869   0.02260
 143        3PZ         0.00000   0.00000  -0.00000   0.00001   0.00001
 144        4S          0.00447   0.00106   0.04984  -0.02498  -0.07072
 145        4PX        -0.00701  -0.00024  -0.02311  -0.05019  -0.04689
 146        4PY         0.00152  -0.00096  -0.01580  -0.02357  -0.00777
 147        4PZ        -0.00000   0.00000   0.00000   0.00001   0.00000
 148        5XX         0.00013   0.00002  -0.00164   0.00205   0.00086
 149        5YY         0.00005  -0.00005   0.00086   0.00138   0.00349
 150        5ZZ        -0.00002  -0.00004   0.00118  -0.00294  -0.00578
 151        5XY         0.00002  -0.00001  -0.00054   0.00199   0.00386
 152        5XZ        -0.00000  -0.00000   0.00000   0.00000   0.00000
 153        5YZ        -0.00000   0.00000  -0.00000   0.00000   0.00000
 154 12  H  1S         -0.00015   0.00001  -0.00452   0.02161   0.02806
 155        2S          0.00051   0.00018  -0.00775   0.00801   0.00853
 156        3PX         0.00003   0.00001   0.00053   0.00001  -0.00163
 157        3PY         0.00001   0.00002  -0.00064   0.00295   0.00384
 158        3PZ        -0.00000   0.00000  -0.00000   0.00000   0.00000
 159 13  C  1S         -0.00001  -0.00001   0.00222  -0.07257  -0.10611
 160        2S         -0.00010  -0.00004  -0.00539   0.13443   0.19898
 161        2PX        -0.00007   0.00002   0.00241  -0.00749  -0.07187
 162        2PY        -0.00006   0.00000   0.00080   0.04228   0.11490
 163        2PZ        -0.00000   0.00000  -0.00000   0.00002   0.00005
 164        3S          0.00162   0.00009   0.01143   0.05204   0.06693
 165        3PX         0.00028  -0.00010  -0.01128   0.01565   0.02456
 166        3PY        -0.00100  -0.00024   0.00264  -0.05586  -0.06884
 167        3PZ        -0.00000  -0.00000   0.00000  -0.00003  -0.00003
 168        4S          0.02733  -0.00198   0.19376   0.05529   0.13998
 169        4PX         0.01411  -0.00309  -0.02192   0.11522  -0.05234
 170        4PY        -0.00557   0.00047  -0.03031  -0.00608  -0.01360
 171        4PZ        -0.00000  -0.00000  -0.00001  -0.00002  -0.00000
 172        5XX        -0.00002  -0.00002   0.00013  -0.00013  -0.01437
 173        5YY        -0.00004  -0.00000   0.00006   0.00800   0.01491
 174        5ZZ        -0.00004  -0.00002   0.00006  -0.01149  -0.01738
 175        5XY         0.00001   0.00000  -0.00014  -0.00387  -0.00233
 176        5XZ        -0.00000   0.00000  -0.00000  -0.00000  -0.00000
 177        5YZ         0.00000  -0.00000  -0.00000   0.00001   0.00001
 178 14  O  1S         -0.00002  -0.00000   0.00141  -0.07886  -0.15444
 179        2S         -0.00008  -0.00001  -0.00257   0.16821   0.32955
 180        2PX        -0.00001  -0.00001   0.00008   0.01409   0.01678
 181        2PY         0.00002   0.00000   0.00149  -0.06770  -0.12749
 182        2PZ         0.00000  -0.00000   0.00000  -0.00003  -0.00005
 183        3S          0.00059   0.00009  -0.00676   0.18098   0.35453
 184        3PX         0.00013   0.00006   0.00143   0.00447   0.00330
 185        3PY        -0.00019  -0.00004   0.00261  -0.03239  -0.05868
 186        3PZ        -0.00000   0.00000   0.00000  -0.00001  -0.00002
 187        4S         -0.00037   0.00012  -0.00800   0.02725  -0.02014
 188        4PX        -0.00016   0.00001  -0.00352   0.00532  -0.00243
 189        4PY         0.00073  -0.00022   0.00563  -0.01277  -0.00245
 190        4PZ         0.00000  -0.00000  -0.00000  -0.00000  -0.00000
 191        5XX        -0.00006  -0.00000   0.00032  -0.00411  -0.01016
 192        5YY        -0.00002   0.00000  -0.00029   0.00346   0.00672
 193        5ZZ        -0.00005  -0.00000   0.00013  -0.00283  -0.00625
 194        5XY        -0.00001  -0.00000  -0.00014  -0.00202  -0.00220
 195        5XZ        -0.00000   0.00000  -0.00000  -0.00000  -0.00000
 196        5YZ         0.00000  -0.00000  -0.00000   0.00000   0.00001
 197 15  C  1S          0.00000  -0.00001   0.00040  -0.11145   0.04981
 198        2S          0.00003  -0.00004  -0.00104   0.20935  -0.09319
 199        2PX         0.00004   0.00001   0.00015   0.06442  -0.07200
 200        2PY        -0.00001   0.00000   0.00009  -0.01097   0.01880
 201        2PZ         0.00000  -0.00000   0.00000  -0.00002   0.00002
 202        3S         -0.00112   0.00016   0.00265   0.03582  -0.04737
 203        3PX        -0.00009  -0.00015  -0.00153  -0.01706   0.03402
 204        3PY         0.00002  -0.00010   0.00537   0.01346   0.02944
 205        3PZ        -0.00000   0.00000   0.00000   0.00001   0.00000
 206        4S         -0.02962   0.00533  -0.04636  -0.11274  -0.03391
 207        4PX         0.00568  -0.00109   0.01156   0.00616   0.02177
 208        4PY        -0.00277   0.00043  -0.00515  -0.02573   0.00281
 209        4PZ        -0.00000   0.00000  -0.00001  -0.00001   0.00000
 210        5XX        -0.00002  -0.00001  -0.00009  -0.00187   0.00659
 211        5YY        -0.00003  -0.00001  -0.00021   0.01056  -0.00554
 212        5ZZ         0.00001  -0.00002   0.00006  -0.01843   0.00883
 213        5XY        -0.00001  -0.00001   0.00006   0.00561  -0.00843
 214        5XZ         0.00000  -0.00000   0.00000  -0.00000  -0.00000
 215        5YZ        -0.00000   0.00000  -0.00000   0.00001  -0.00000
 216 16  O  1S          0.00000  -0.00000   0.00025  -0.09346   0.05291
 217        2S          0.00002  -0.00001  -0.00096   0.20114  -0.11527
 218        2PX         0.00001   0.00000   0.00014  -0.01389   0.00233
 219        2PY         0.00000  -0.00000  -0.00033   0.08603  -0.04825
 220        2PZ        -0.00000  -0.00000  -0.00000   0.00003  -0.00002
 221        3S         -0.00005   0.00003   0.00208   0.19227  -0.09443
 222        3PX        -0.00005   0.00003   0.00001  -0.00435  -0.00360
 223        3PY         0.00011  -0.00002   0.00148   0.03503  -0.01434
 224        3PZ         0.00000   0.00000   0.00000   0.00001  -0.00000
 225        4S          0.00205  -0.00033   0.00445  -0.00121   0.04307
 226        4PX        -0.00049   0.00007  -0.00244   0.00106  -0.01410
 227        4PY         0.00047  -0.00002   0.00037   0.00494   0.00781
 228        4PZ         0.00000  -0.00000  -0.00000   0.00000   0.00000
 229        5XX         0.00001  -0.00001  -0.00010  -0.00444   0.00263
 230        5YY         0.00003  -0.00001  -0.00001   0.00687  -0.00474
 231        5ZZ         0.00000  -0.00001  -0.00019  -0.00317   0.00212
 232        5XY        -0.00000   0.00000  -0.00003  -0.00141  -0.00037
 233        5XZ         0.00000   0.00000  -0.00000   0.00000  -0.00000
 234        5YZ         0.00000  -0.00000   0.00000   0.00000  -0.00000
 235 17  O  1S         -0.00002  -0.00000   0.00025  -0.13701   0.08523
 236        2S         -0.00009  -0.00001  -0.00013   0.29945  -0.18375
 237        2PX         0.00001   0.00000   0.00015  -0.01743  -0.00070
 238        2PY        -0.00000   0.00000   0.00018  -0.09014   0.05633
 239        2PZ         0.00000  -0.00000   0.00000  -0.00002   0.00002
[...]
                                                    47(v),75(v)
    10. BD (   1) C   7 - H   8          0.98885    -0.69791  238(v)
    11. BD (   1) C   7 - H   9          0.96387    -0.69562  34(v),239(v),49(v)
    12. BD (   1) C   7 - H  10          0.96379    -0.69562  34(v),239(v),49(v)
    13. BD (   1) N  11 - H  12          0.98959    -0.90095  252(v),242(v),76(v),165(v)
                                                    244(v),166(v),251(g),74(v)
                                                    245(g)
    14. BD (   1) N  11 - C  13          0.99358    -1.07640  244(v),74(v),245(g),192(v)
                                                    257(v),250(g),252(g),75(v)
    15. BD (   1) C  13 - O  14          0.99741    -1.29417  250(v),164(g),251(g),255(v)
                                                    254(g)
    16. BD (   2) C  13 - O  14          0.95631    -0.59007  256(v),147(v)
    17. BD (   1) C  13 - C  15          0.98593    -0.86661  245(v),258(v),178(v),206(v)
                                                    148(v),146(v),220(v),252(g)
                                                    179(v)
    18. BD (   1) C  15 - O  16          0.99851    -1.27873  192(g),252(v)
    19. BD (   2) C  15 - O  16          0.98805    -0.57862  253(v),221(v),256(g)
    20. BD (   1) C  15 - O  17          0.99754    -1.14281  251(v),164(v),255(g)
    21. BD (   1) O  17 - H  18          0.99158    -0.92697  254(v),193(v),196(v),192(v)
                                                    255(v)
    22. CR (   1) C   1                  0.99954   -10.44205  89(v),121(v),238(g),239(g)
                                                    246(v)
    23. CR (   1) O   2                  0.99986   -19.34861  46(v),106(v)
    24. CR (   1) C   3                  0.99962   -10.45097  88(v),107(v),251(v),246(v)
                                                    242(g),250(v)
    25. CR (   1) C   4                  0.99942   -10.33411  47(v),240(v),245(v),75(v)
                                                    74(v),46(v),239(g),102(v)
    26. CR (   1) N   6                  0.99967   -14.56307  74(v),241(g),238(v),242(v)
    27. CR (   1) C   7                  0.99969   -10.31855  239(v),47(v),52(v)
    28. CR (   1) N  11                  0.99967   -14.51977  75(v),165(v),252(v),76(v)
                                                    164(v),242(v),168(v)
    29. CR (   1) C  13                  0.99967   -10.46158  245(v),197(v),255(v),250(v)
    30. CR (   1) O  14                  0.99990   -19.16476  164(v),251(v)
    31. CR (   1) C  15                  0.99973   -10.46249  252(v),165(v)
    32. CR (   1) O  16                  0.99990   -19.13510  192(v),257(v),254(v)
    33. CR (   1) O  17                  0.99988   -19.24420  192(v),193(v),195(v),255(v)
    34. LP*(   1) C   1                  0.30448    -0.32502  243(v),249(v),248(v),61(v)
                                                    53(g),96(v),90(v),38(r)
                                                    122(v)
    35. LP (   1) O   2                  0.98874    -0.86880  46(v),239(v),244(v),106(v)
    36. LP (   2) O   2                  0.84494    -0.58210  38(v),34(v),48(v),109(v)
                                                    53(v)
    37. LP (   1) N   6                  0.97735    -0.70184  74(v),242(v),238(v),60(v)
                                                    245(v),250(r),241(g)
    38. LP*(   2) N   6                  0.20435    -0.36427  243(v),109(g),118(g),83(v)
    39. LP (   1) N  11                  0.68682    -0.48496  243(v),253(v),77(v),167(v)
                                                    147(g),161(v)
    40. LP (   1) O  14                  0.99023    -0.92389  164(v),251(v),254(v)
    41. LP (   2) O  14                  0.92687    -0.47193  251(v),254(v),166(v),165(v)
                                                    168(v),246(r)
    42. LP (   1) O  16                  0.98892    -0.90884  192(v),254(v),257(v),195(v)
                                                    193(v),250(r),213(g),199(v)
    43. LP (   2) O  16                  0.92114    -0.45886  257(v),254(v),193(v),250(r)
                                                    195(v),197(v),203(v)
    44. LP (   1) O  17                  0.98562    -0.78998  255(v),192(v),195(v),254(v)
                                                    236(v)
    45. LP (   2) O  17                  0.88995    -0.50882  256(v),194(v),235(v),201(v)
    46. RY*(   1) C   1                  0.00375     0.55919   
    47. RY*(   2) C   1                  0.00208     0.94419   
    48. RY*(   3) C   1                  0.00076     1.78694   
    49. RY*(   4) C   1                  0.00069     1.18767   
    50. RY*(   5) C   1                  0.00058     1.67472   
    51. RY*(   6) C   1                  0.00025     1.55608   
    52. RY*(   7) C   1                  0.00016     1.74504   
    53. RY*(   8) C   1                  0.00005     0.95007   
    54. RY*(   9) C   1                  0.00004     0.79769   
    55. RY*(  10) C   1                  0.00004     0.83489   
    56. RY*(  11) C   1                  0.00003     2.46021   
    57. RY*(  12) C   1                  0.00001     1.70898   
    58. RY*(  13) C   1                  0.00000     0.23137   
    59. RY*(  14) C   1                  0.00001     1.73111   
    60. RY*(   1) O   2                  0.00214     0.64431   
    61. RY*(   2) O   2                  0.00073     0.48771   
    62. RY*(   3) O   2                  0.00060     0.36919   
    63. RY*(   4) O   2                  0.00039     1.22300   
    64. RY*(   5) O   2                  0.00021     1.30894   
    65. RY*(   6) O   2                  0.00009     1.45223   
    66. RY*(   7) O   2                  0.00007     1.07225   
    67. RY*(   8) O   2                  0.00006     1.12874   
    68. RY*(   9) O   2                  0.00003     1.20753   
    69. RY*(  10) O   2                  0.00001     1.37231   
    70. RY*(  11) O   2                  0.00000     3.74278   
    71. RY*(  12) O   2                  0.00001     1.62910   
    72. RY*(  13) O   2                  0.00000     1.47868   
    73. RY*(  14) O   2                  0.00001     2.03091   
    74. RY*(   1) C   3                  0.00601     0.66856   
    75. RY*(   2) C   3                  0.00180     0.81653   
    76. RY*(   3) C   3                  0.00121     1.26405   
    77. RY*(   4) C   3                  0.00121     1.56127   
    78. RY*(   5) C   3                  0.00030     0.82517   
    79. RY*(   6) C   3                  0.00018     1.97560   
    80. RY*(   7) C   3                  0.00017     1.42034   
    81. RY*(   8) C   3                  0.00010     0.56070   
    82. RY*(   9) C   3                  0.00007     2.90126   
    83. RY*(  10) C   3                  0.00005     0.62923   
    84. RY*(  11) C   3                  0.00004     1.43252   
    85. RY*(  12) C   3                  0.00001     1.12042   
    86. RY*(  13) C   3                  0.00001     0.39705   
    87. RY*(  14) C   3                  0.00001     2.17830   
    88. RY*(   1) C   4                  0.00175     0.68582   
    89. RY*(   2) C   4                  0.00149     0.68601   
    90. RY*(   3) C   4                  0.00039     0.30861   
    91. RY*(   4) C   4                  0.00023     0.46783   
    92. RY*(   5) C   4                  0.00014     0.96755   
    93. RY*(   6) C   4                  0.00008     0.69589   
    94. RY*(   7) C   4                  0.00008     0.70360   
    95. RY*(   8) C   4                  0.00006     0.71685   
    96. RY*(   9) C   4                  0.00004     1.34233   
    97. RY*(  10) C   4                  0.00002     1.96371   
    98. RY*(  11) C   4                  0.00001     3.84695   
    99. RY*(  12) C   4                  0.00000     1.55586   
   100. RY*(  13) C   4                  0.00001     1.64513   
   101. RY*(  14) C   4                  0.00001     2.20736   
   102. RY*(   1) H   5                  0.00059     0.41416   
   103. RY*(   2) H   5                  0.00006     2.00031   
   104. RY*(   3) H   5                  0.00004     2.33944   
   105. RY*(   4) H   5                  0.00001     2.87108   
   106. RY*(   1) N   6                  0.00157     0.67601   
   107. RY*(   2) N   6                  0.00070     0.74103   
   108. RY*(   3) N   6                  0.00042     1.45389   
   109. RY*(   4) N   6                  0.00030     0.54786   
   110. RY*(   5) N   6                  0.00028     1.38559   
   111. RY*(   6) N   6                  0.00016     0.94975   
   112. RY*(   7) N   6                  0.00010     1.31930   
   113. RY*(   8) N   6                  0.00002     1.59986   
   114. RY*(   9) N   6                  0.00002     1.18974   
   115. RY*(  10) N   6                  0.00001     0.49062   
   116. RY*(  11) N   6                  0.00002     2.16585   
   117. RY*(  12) N   6                  0.00000     1.41778   
   118. RY*(  13) N   6                  0.00000     0.63031   
   119. RY*(  14) N   6                  0.00000     3.34528   
   120. RY*(   1) C   7                  0.00147     0.50958   
   121. RY*(   2) C   7                  0.00039     0.48897   
   122. RY*(   3) C   7                  0.00019     0.76959   
   123. RY*(   4) C   7                  0.00005     0.34281   
   124. RY*(   5) C   7                  0.00004     1.03223   
   125. RY*(   6) C   7                  0.00005     0.41297   
   126. RY*(   7) C   7                  0.00001     0.37309   
   127. RY*(   8) C   7                  0.00001     0.10950   
   128. RY*(   9) C   7                  0.00000     4.05002   
   129. RY*(  10) C   7                  0.00001     2.04074   
   130. RY*(  11) C   7                  0.00000     1.60748   
   131. RY*(  12) C   7                  0.00000     1.79490   
   132. RY*(  13) C   7                  0.00000     1.80480   
   133. RY*(  14) C   7                  0.00000     2.13944   
   134. RY*(   1) H   8                  0.00011     0.52402   
   135. RY*(   2) H   8                  0.00005     2.09415   
   136. RY*(   3) H   8                  0.00004     2.10196   
   137. RY*(   4) H   8                  0.00000     2.83973   
   138. RY*(   1) H   9                  0.00029     0.51225   
   139. RY*(   2) H   9                  0.00005     2.12235   
   140. RY*(   3) H   9                  0.00005     2.10905   
   141. RY*(   4) H   9                  0.00000     2.83615   
   142. RY*(   1) H  10                  0.00029     0.51226   
   143. RY*(   2) H  10                  0.00005     2.12221   
   144. RY*(   3) H  10                  0.00005     2.10914   
   145. RY*(   4) H  10                  0.00000     2.83611   
   146. RY*(   1) N  11                  0.00177     1.15722   
   147. RY*(   2) N  11                  0.00149     0.36647   
   148. RY*(   3) N  11                  0.00111     0.99666   
   149. RY*(   4) N  11                  0.00049     1.28068   
   150. RY*(   5) N  11                  0.00019     1.70762   
   151. RY*(   6) N  11                  0.00010     1.67659   
   152. RY*(   7) N  11                  0.00008     1.31986   
   153. RY*(   8) N  11                  0.00007     0.49451   
   154. RY*(   9) N  11                  0.00005     1.12968   
   155. RY*(  10) N  11                  0.00003     1.08807   
   156. RY*(  11) N  11                  0.00003     1.89265   
   157. RY*(  12) N  11                  0.00001     1.64128   
   158. RY*(  13) N  11                  0.00000     3.79313   
   159. RY*(  14) N  11                  0.00001     1.96387   
   160. RY*(   1) H  12                  0.00132     0.50617   
   161. RY*(   2) H  12                  0.00012     2.03111   
   162. RY*(   3) H  12                  0.00007     2.46859   
   163. RY*(   4) H  12                  0.00002     2.83424   
   164. RY*(   1) C  13                  0.00831     0.67703   
   165. RY*(   2) C  13                  0.00343     1.16313   
   166. RY*(   3) C  13                  0.00149     1.81037   
   167. RY*(   4) C  13                  0.00099     1.72386   
   168. RY*(   5) C  13                  0.00059     1.35262   
   169. RY*(   6) C  13                  0.00026     0.86165   
   170. RY*(   7) C  13                  0.00015     2.74125   
   171. RY*(   8) C  13                  0.00015     1.61439   
   172. RY*(   9) C  13                  0.00007     1.55637   
   173. RY*(  10) C  13                  0.00008     0.60553   
   174. RY*(  11) C  13                  0.00005     0.75817   
   175. RY*(  12) C  13                  0.00003     1.05705   
   176. RY*(  13) C  13                  0.00002     2.04374   
   177. RY*(  14) C  13                  0.00000     0.27038   
   178. RY*(   1) O  14                  0.00171     0.97870   
   179. RY*(   2) O  14                  0.00047     0.99592   
   180. RY*(   3) O  14                  0.00042     0.32784   
   181. RY*(   4) O  14                  0.00007     0.99174   
   182. RY*(   5) O  14                  0.00007     1.33877   
   183. RY*(   6) O  14                  0.00004     1.82928   
   184. RY*(   7) O  14                  0.00003     2.00577   
   185. RY*(   8) O  14                  0.00002     2.63990   
   186. RY*(   9) O  14                  0.00002     0.87580   
   187. RY*(  10) O  14                  0.00002     0.66335   
   188. RY*(  11) O  14                  0.00001     1.62980   
   189. RY*(  12) O  14                  0.00000     1.67666   
   190. RY*(  13) O  14                  0.00001     1.96043   
   191. RY*(  14) O  14                  0.00000     1.71908   
   192. RY*(   1) C  15                  0.01029     0.65444   
   193. RY*(   2) C  15                  0.00353     1.42331   
   194. RY*(   3) C  15                  0.00205     1.91872   
   195. RY*(   4) C  15                  0.00157     1.61868   
   196. RY*(   5) C  15                  0.00069     1.76366   
   197. RY*(   6) C  15                  0.00044     1.04621   
   198. RY*(   7) C  15                  0.00020     1.28078   
   199. RY*(   8) C  15                  0.00013     2.52512   
   200. RY*(   9) C  15                  0.00007     1.02910   
   201. RY*(  10) C  15                  0.00006     0.56737   
   202. RY*(  11) C  15                  0.00002     0.72481   
   203. RY*(  12) C  15                  0.00000     0.57722   
   204. RY*(  13) C  15                  0.00000     0.52257   
   205. RY*(  14) C  15                  0.00000     2.16918   
   206. RY*(   1) O  16                  0.00159     0.89132   
   207. RY*(   2) O  16                  0.00037     0.70780   
   208. RY*(   3) O  16                  0.00029     1.62968   
   209. RY*(   4) O  16                  0.00012     1.10613   
   210. RY*(   5) O  16                  0.00006     1.54897   
   211. RY*(   6) O  16                  0.00006     0.56432   
   212. RY*(   7) O  16                  0.00003     1.13579   
   213. RY*(   8) O  16                  0.00002     1.15959   
   214. RY*(   9) O  16                  0.00003     1.78263   
   215. RY*(  10) O  16                  0.00000     2.28400   
   216. RY*(  11) O  16                  0.00001     1.58435   
   217. RY*(  12) O  16                  0.00000     1.69857   
   218. RY*(  13) O  16                  0.00000     1.78013   
   219. RY*(  14) O  16                  0.00000     1.67094   
   220. RY*(   1) O  17                  0.00091     0.71556   
   221. RY*(   2) O  17                  0.00073     0.47779   
   222. RY*(   3) O  17                  0.00029     1.69777   
   223. RY*(   4) O  17                  0.00008     0.92532   
   224. RY*(   5) O  17                  0.00008     0.86715   
   225. RY*(   6) O  17                  0.00004     0.90023   
   226. RY*(   7) O  17                  0.00001     0.99107   
   227. RY*(   8) O  17                  0.00001     3.81765   
   228. RY*(   9) O  17                  0.00001     0.66642   
   229. RY*(  10) O  17                  0.00001     2.37143   
   230. RY*(  11) O  17                  0.00001     1.81330   
   231. RY*(  12) O  17                  0.00000     1.76522   
   232. RY*(  13) O  17                  0.00000     2.05451   
   233. RY*(  14) O  17                  0.00000     2.09205   
   234. RY*(   1) H  18                  0.00141     0.55071   
   235. RY*(   2) H  18                  0.00033     2.10809   
   236. RY*(   3) H  18                  0.00024     2.33829   
   237. RY*(   4) H  18                  0.00000     2.82178   
   238. BD*(   1) C   1 - O   2          0.02319     0.13929   
   239. BD*(   1) C   1 - C   4          0.01178     0.39441   
   240. BD*(   1) C   1 - C   7          0.00748     0.23859   
   241. BD*(   1) O   2 - N   6          0.01178     0.00598   
   242. BD*(   1) C   3 - C   4          0.01434     0.28497   
   243. BD*(   2) C   3 - C   4          0.17541    -0.21325  38(v),34(v),90(g)
   244. BD*(   1) C   3 - N   6          0.00833     0.30629   
   245. BD*(   1) C   3 - N  11          0.01740     0.20523   
   246. BD*(   1) C   4 - H   5          0.00587     0.23651   
   247. BD*(   1) C   7 - H   8          0.00158     0.23530   
   248. BD*(   1) C   7 - H   9          0.00255     0.23608   
   249. BD*(   1) C   7 - H  10          0.00255     0.23608   
   250. BD*(   1) N  11 - H  12          0.01156     0.20169   
   251. BD*(   1) N  11 - C  13          0.04079     0.24856   
   252. BD*(   1) C  13 - O  14          0.00609     0.39565   
   253. BD*(   2) C  13 - O  14          0.07947    -0.17837   
   254. BD*(   1) C  13 - C  15          0.06507     0.16939   
   255. BD*(   1) C  15 - O  16          0.01172     0.42474   
   256. BD*(   2) C  15 - O  16          0.11414    -0.15985  253(v),194(g),204(g),207(g)
                                                    201(g),217(g)
   257. BD*(   1) C  15 - O  17          0.04167     0.21964   
   258. BD*(   1) O  17 - H  18          0.00533     0.29476   
       -------------------------------
              Total Lewis   41.74599  ( 97.0837%)
        Valence non-Lewis    1.16694  (  2.7138%)
        Rydberg non-Lewis    0.08707  (  0.2025%)
       -------------------------------
            Total unit  1   43.00000  (100.0000%)
           Charge unit  1    1.00000
 Unable to Open any file for archive entry.
 1\1\GINC-USER\SP\UM06\6-31+G(d,p)\C6H6N2O4(1+,2)\USER\15-May-2023\0\\#
  6-31+g(d,p) pop=(full,nbo) m06\\I-M2\\1,2\C,0,2.815018,0.267296,0.000
 256\O,0,2.806257,-1.077298,-0.000325\C,0,0.765383,-0.448753,-0.000152\
 C,0,1.539024,0.740456,0.000351\H,0,1.190082,1.761481,0.000606\N,0,1.50
 2682,-1.537905,-0.00057\C,0,4.141179,0.920201,0.00047\H,0,4.025646,2.0
 06539,0.002023\H,0,4.718979,0.627462,0.883806\H,0,4.718042,0.629938,-0
 .884303\N,0,-0.612923,-0.600792,-0.000082\H,0,-0.977647,-1.549964,0.00
 0298\C,0,-1.512436,0.420509,-0.000286\O,0,-1.258921,1.605534,-0.000756
 \C,0,-2.946013,-0.129795,0.000172\O,0,-3.198349,-1.312485,0.00062\O,0,
 -3.847943,0.840781,0.000075\H,0,-4.724697,0.42368,0.00035\\Version=ES6
 4L-G16RevC.01\State=2-A\HF=-641.9660941\S2=0.762329\S2-1=0.\S2A=0.7500
 98\RMSD=6.341e-09\Dipole=2.0635899,0.3173072,0.0006914\Quadrupole=26.7
 245793,-14.9222794,-11.8022999,5.8046979,0.0012255,0.0023269\PG=C01 [X
 (C6H6N2O4)]\\@
 The archive entry for this job was punched.


 IMAGINATION WILL OFTEN CARRY US TO WORLDS THAT NEVER WERE.
 BUT WITHOUT IT, WE GO NOWHERE. -- CARL SAGAN (COSMOS)
 Job cpu time:       0 days  0 hours 40 minutes 11.6 seconds.
 Elapsed time:       0 days  0 hours  3 minutes 21.2 seconds.
 File lengths (MBytes):  RWF=     66 Int=      0 D2E=      0 Chk=      6 Scr=      1
 Normal termination of Gaussian 16 at Mon May 15 22:21:57 2023.
