 Entering Gaussian System, Link 0=/home/user/SOFTWARE/gauss/g16/g16
 Input=/home/user/WorkIMPORTANT/Joydeep/I-M1-upd/I-M1_M06/I-M1.gjf
 Output=/home/user/WorkIMPORTANT/Joydeep/I-M1-upd/I-M1_M06/I-M1.log
 Initial command:
 /home/user/SOFTWARE/gauss/g16/l1.exe "/home/user/SOFTWARE/gauss/scratch/Gau-301081.inp" -scrdir="/home/user/SOFTWARE/gauss/scratch/"
 Entering Link 1 = /home/user/SOFTWARE/gauss/g16/l1.exe PID=    301083.
  
 Copyright (c) 1988-2019, Gaussian, Inc.  All Rights Reserved.
  
 This is part of the Gaussian(R) 16 program.  It is based on
 the Gaussian(R) 09 system (copyright 2009, Gaussian, Inc.),
 the Gaussian(R) 03 system (copyright 2003, Gaussian, Inc.),
 the Gaussian(R) 98 system (copyright 1998, Gaussian, Inc.),
 the Gaussian(R) 94 system (copyright 1995, Gaussian, Inc.),
 the Gaussian 92(TM) system (copyright 1992, Gaussian, Inc.),
 the Gaussian 90(TM) system (copyright 1990, Gaussian, Inc.),
 the Gaussian 88(TM) system (copyright 1988, Gaussian, Inc.),
 the Gaussian 86(TM) system (copyright 1986, Carnegie Mellon
 University), and the Gaussian 82(TM) system (copyright 1983,
 Carnegie Mellon University). Gaussian is a federally registered
 trademark of Gaussian, Inc.
  
 This software contains proprietary and confidential information,
 including trade secrets, belonging to Gaussian, Inc.
  
 This software is provided under written license and may be
 used, copied, transmitted, or stored only in accord with that
 written license.
  
 The following legend is applicable only to US Government
 contracts under FAR:
  
                    RESTRICTED RIGHTS LEGEND
  
 Use, reproduction and disclosure by the US Government is
 subject to restrictions as set forth in subparagraphs (a)
 and (c) of the Commercial Computer Software - Restricted
 Rights clause in FAR 52.227-19.
  
 Gaussian, Inc.
 340 Quinnipiac St., Bldg. 40, Wallingford CT 06492
  
  
 ---------------------------------------------------------------
 Warning -- This program may not be used in any manner that
 competes with the business of Gaussian, Inc. or will provide
 assistance to any competitor of Gaussian, Inc.  The licensee
 of this program is prohibited from giving any competitor of
 Gaussian, Inc. access to this program.  By using this program,
 the user acknowledges that Gaussian, Inc. is engaged in the
 business of creating and licensing software in the field of
 computational chemistry and represents and warrants to the
 licensee that it is not a competitor of Gaussian, Inc. and that
 it will not use this program in any manner prohibited above.
 ---------------------------------------------------------------
  

 Cite this work as:
 Gaussian 16, Revision C.01,
 M. J. Frisch, G. W. Trucks, H. B. Schlegel, G. E. Scuseria, 
 M. A. Robb, J. R. Cheeseman, G. Scalmani, V. Barone, 
 G. A. Petersson, H. Nakatsuji, X. Li, M. Caricato, A. V. Marenich, 
 J. Bloino, B. G. Janesko, R. Gomperts, B. Mennucci, H. P. Hratchian, 
 J. V. Ortiz, A. F. Izmaylov, J. L. Sonnenberg, D. Williams-Young, 
 F. Ding, F. Lipparini, F. Egidi, J. Goings, B. Peng, A. Petrone, 
 T. Henderson, D. Ranasinghe, V. G. Zakrzewski, J. Gao, N. Rega, 
 G. Zheng, W. Liang, M. Hada, M. Ehara, K. Toyota, R. Fukuda, 
 J. Hasegawa, M. Ishida, T. Nakajima, Y. Honda, O. Kitao, H. Nakai, 
 T. Vreven, K. Throssell, J. A. Montgomery, Jr., J. E. Peralta, 
 F. Ogliaro, M. J. Bearpark, J. J. Heyd, E. N. Brothers, K. N. Kudin, 
 V. N. Staroverov, T. A. Keith, R. Kobayashi, J. Normand, 
 K. Raghavachari, A. P. Rendell, J. C. Burant, S. S. Iyengar, 
 J. Tomasi, M. Cossi, J. M. Millam, M. Klene, C. Adamo, R. Cammi, 
 J. W. Ochterski, R. L. Martin, K. Morokuma, O. Farkas, 
 J. B. Foresman, and D. J. Fox, Gaussian, Inc., Wallingford CT, 2019.
 
 ******************************************
 Gaussian 16:  ES64L-G16RevC.01  3-Jul-2019
                14-Feb-2023 
 ******************************************
 %mem=32GB
 %nprocshared=21
 Will use up to   21 processors via shared memory.
 --------------------------
 # opt freq 6-31+g(d,p) m06
 --------------------------
 1/18=20,19=15,26=3,38=1/1,3;
 2/9=110,12=2,17=6,18=5,40=1/2;
 3/5=1,6=6,7=111,11=2,25=1,30=1,71=1,74=-54/1,2,3;
 4//1;
 5/5=2,38=5/2;
 6/7=2,8=2,9=2,10=2,28=1/1;
 7//1,2,3,16;
 1/18=20,19=15,26=3/3(2);
 2/9=110/2;
 99//99;
 2/9=110/2;
 3/5=1,6=6,7=111,11=2,25=1,30=1,71=1,74=-54/1,2,3;
 4/5=5,16=3,69=1/1;
 5/5=2,38=5/2;
 7//1,2,3,16;
 1/18=20,19=15,26=3/3(-5);
 2/9=110/2;
 6/7=2,8=2,9=2,10=2,19=2,28=1/1;
 99/9=1/99;
 ----
 I-M1
 ----
 Symbolic Z-matrix:
 Charge =  0 Multiplicity = 1
 C                    -3.44102  -0.24326  -0.09887 
 C                    -4.79243  -0.5382   -0.00734 
 C                    -5.69744   0.5049    0.17082 
 C                    -5.24162   1.81934   0.24938 
 C                    -3.88327   2.10459   0.16828 
 C                    -2.95865   1.07037   0.00363 
 H                    -5.12242  -1.57198  -0.07454 
 H                    -6.76027   0.29053   0.2448 
 H                    -5.95226   2.63109   0.38102 
 H                    -3.52162   3.1266    0.23659 
 C                    -1.5196    1.3481   -0.05124 
 C                    -0.58137   0.36734   0.14268 
 S                    -2.2618   -1.53586  -0.42412 
 O                    -1.87378  -1.47836  -1.82071 
 O                    -2.73333  -2.7692    0.18322 
 N                    -0.95644  -0.97152   0.48469 
 C                    -1.03272  -1.24275   1.93134 
 H                    -0.06158  -0.99091   2.36824 
 H                    -1.80956  -0.63664   2.42042 
 H                    -1.2339   -2.30327   2.09246 
 O                    -1.20537   2.60718  -0.32253 
 H                    -0.21323   2.66938  -0.31048 
 C                     0.83953   0.66684  -0.01312 
 O                     1.25114   1.82707  -0.17143 
 N                     1.67265  -0.41207   0.03038 
 H                     1.24063  -1.33158   0.06253 
 C                     3.05312  -0.37384  -0.07889 
 N                     3.70046  -1.51953  -0.04181 
 C                     5.1494    0.15085  -0.26083 
 C                     3.925     0.73814  -0.21855 
 C                     6.52367   0.69208  -0.39863 
 H                     7.03425   0.15126  -1.21044 
 O                     5.03192  -1.18292  -0.16183 
 H                     3.66639   1.7841   -0.27237 
 O                     7.19952   0.53159   0.83075 
 H                     6.60942   0.1104    1.46389 
 H                     6.4456    1.75094  -0.68855 
 

 GradGradGradGradGradGradGradGradGradGradGradGradGradGradGradGradGradGrad
 Berny optimization.
 Initialization pass.
                           ----------------------------
                           !    Initial Parameters    !
                           ! (Angstroms and Degrees)  !
 --------------------------                            --------------------------
 ! Name  Definition              Value          Derivative Info.                !
 --------------------------------------------------------------------------------
 ! R1    R(1,2)                  1.3862         estimate D2E/DX2                !
 ! R2    R(1,6)                  1.4031         estimate D2E/DX2                !
 ! R3    R(1,13)                 1.7797         estimate D2E/DX2                !
 ! R4    R(2,3)                  1.3924         estimate D2E/DX2                !
 ! R5    R(2,7)                  1.0873         estimate D2E/DX2                !
 ! R6    R(3,4)                  1.3934         estimate D2E/DX2                !
 ! R7    R(3,8)                  1.0868         estimate D2E/DX2                !
 ! R8    R(4,5)                  1.3903         estimate D2E/DX2                !
 ! R9    R(4,9)                  1.0869         estimate D2E/DX2                !
 ! R10   R(5,6)                  1.397          estimate D2E/DX2                !
 ! R11   R(5,10)                 1.0863         estimate D2E/DX2                !
 ! R12   R(6,11)                 1.4666         estimate D2E/DX2                !
 ! R13   R(11,12)                1.371          estimate D2E/DX2                !
 ! R14   R(11,21)                1.3258         estimate D2E/DX2                !
 ! R15   R(12,16)                1.4319         estimate D2E/DX2                !
 ! R16   R(12,23)                1.4605         estimate D2E/DX2                !
 ! R17   R(13,14)                1.4506         estimate D2E/DX2                !
 ! R18   R(13,15)                1.4534         estimate D2E/DX2                !
 ! R19   R(13,16)                1.6877         estimate D2E/DX2                !
 ! R20   R(16,17)                1.4738         estimate D2E/DX2                !
 ! R21   R(17,18)                1.0943         estimate D2E/DX2                !
 ! R22   R(17,19)                1.1            estimate D2E/DX2                !
 ! R23   R(17,20)                1.0914         estimate D2E/DX2                !
 ! R24   R(21,22)                0.9942         estimate D2E/DX2                !
 ! R25   R(23,24)                1.2412         estimate D2E/DX2                !
 ! R26   R(23,25)                1.3638         estimate D2E/DX2                !
 ! R27   R(25,26)                1.0165         estimate D2E/DX2                !
 ! R28   R(25,27)                1.3853         estimate D2E/DX2                !
 ! R29   R(27,28)                1.3164         estimate D2E/DX2                !
 ! R30   R(27,30)                1.4199         estimate D2E/DX2                !
 ! R31   R(28,33)                1.3786         estimate D2E/DX2                !
 ! R32   R(29,30)                1.3586         estimate D2E/DX2                !
 ! R33   R(29,31)                1.4834         estimate D2E/DX2                !
 ! R34   R(29,33)                1.3426         estimate D2E/DX2                !
 ! R35   R(30,34)                1.0788         estimate D2E/DX2                !
 ! R36   R(31,32)                1.101          estimate D2E/DX2                !
 ! R37   R(31,35)                1.4121         estimate D2E/DX2                !
 ! R38   R(31,37)                1.1006         estimate D2E/DX2                !
 ! R39   R(35,36)                0.9625         estimate D2E/DX2                !
 ! A1    A(2,1,6)              121.9721         estimate D2E/DX2                !
 ! A2    A(2,1,13)             120.2316         estimate D2E/DX2                !
 ! A3    A(6,1,13)             117.7454         estimate D2E/DX2                !
 ! A4    A(1,2,3)              118.8607         estimate D2E/DX2                !
 ! A5    A(1,2,7)              119.6106         estimate D2E/DX2                !
 ! A6    A(3,2,7)              121.5287         estimate D2E/DX2                !
 ! A7    A(2,3,4)              120.0829         estimate D2E/DX2                !
 ! A8    A(2,3,8)              119.7742         estimate D2E/DX2                !
 ! A9    A(4,3,8)              120.1425         estimate D2E/DX2                !
 ! A10   A(3,4,5)              120.6525         estimate D2E/DX2                !
 ! A11   A(3,4,9)              119.8327         estimate D2E/DX2                !
 ! A12   A(5,4,9)              119.5138         estimate D2E/DX2                !
 ! A13   A(4,5,6)              120.1073         estimate D2E/DX2                !
 ! A14   A(4,5,10)             120.9729         estimate D2E/DX2                !
 ! A15   A(6,5,10)             118.9189         estimate D2E/DX2                !
 ! A16   A(1,6,5)              118.3044         estimate D2E/DX2                !
 ! A17   A(1,6,11)             120.7879         estimate D2E/DX2                !
 ! A18   A(5,6,11)             120.9063         estimate D2E/DX2                !
 ! A19   A(6,11,12)            122.0529         estimate D2E/DX2                !
 ! A20   A(6,11,21)            114.838          estimate D2E/DX2                !
 ! A21   A(12,11,21)           123.1003         estimate D2E/DX2                !
 ! A22   A(11,12,16)           121.5607         estimate D2E/DX2                !
 ! A23   A(11,12,23)           120.265          estimate D2E/DX2                !
 ! A24   A(16,12,23)           118.1702         estimate D2E/DX2                !
 ! A25   A(1,13,14)            108.9295         estimate D2E/DX2                !
 ! A26   A(1,13,15)            108.966          estimate D2E/DX2                !
 ! A27   A(1,13,16)             99.8588         estimate D2E/DX2                !
 ! A28   A(14,13,15)           121.5151         estimate D2E/DX2                !
 ! A29   A(14,13,16)           107.3544         estimate D2E/DX2                !
 ! A30   A(15,13,16)           108.0395         estimate D2E/DX2                !
 ! A31   A(12,16,13)           112.7462         estimate D2E/DX2                !
 ! A32   A(12,16,17)           114.8401         estimate D2E/DX2                !
 ! A33   A(13,16,17)           115.2766         estimate D2E/DX2                !
 ! A34   A(16,17,18)           107.6752         estimate D2E/DX2                !
 ! A35   A(16,17,19)           111.8114         estimate D2E/DX2                !
 ! A36   A(16,17,20)           109.4678         estimate D2E/DX2                !
 ! A37   A(18,17,19)           108.8086         estimate D2E/DX2                !
 ! A38   A(18,17,20)           109.1649         estimate D2E/DX2                !
 ! A39   A(19,17,20)           109.8523         estimate D2E/DX2                !
 ! A40   A(11,21,22)           107.0662         estimate D2E/DX2                !
 ! A41   A(12,23,24)           121.8658         estimate D2E/DX2                !
 ! A42   A(12,23,25)           115.3845         estimate D2E/DX2                !
 ! A43   A(24,23,25)           122.7496         estimate D2E/DX2                !
 ! A44   A(23,25,26)           117.1949         estimate D2E/DX2                !
 ! A45   A(23,25,27)           125.7595         estimate D2E/DX2                !
 ! A46   A(26,25,27)           116.8077         estimate D2E/DX2                !
 ! A47   A(25,27,28)           117.6308         estimate D2E/DX2                !
 ! A48   A(25,27,30)           129.8859         estimate D2E/DX2                !
 ! A49   A(28,27,30)           112.4808         estimate D2E/DX2                !
 ! A50   A(27,28,33)           105.0686         estimate D2E/DX2                !
 ! A51   A(30,29,31)           132.8494         estimate D2E/DX2                !
 ! A52   A(30,29,33)           110.3819         estimate D2E/DX2                !
 ! A53   A(31,29,33)           116.7675         estimate D2E/DX2                !
 ! A54   A(27,30,29)           102.5867         estimate D2E/DX2                !
 ! A55   A(27,30,34)           128.0965         estimate D2E/DX2                !
 ! A56   A(29,30,34)           129.3164         estimate D2E/DX2                !
 ! A57   A(29,31,32)           108.5963         estimate D2E/DX2                !
 ! A58   A(29,31,35)           108.7274         estimate D2E/DX2                !
 ! A59   A(29,31,37)           108.0455         estimate D2E/DX2                !
 ! A60   A(32,31,35)           111.3561         estimate D2E/DX2                !
 ! A61   A(32,31,37)           108.1342         estimate D2E/DX2                !
 ! A62   A(35,31,37)           111.8777         estimate D2E/DX2                !
 ! A63   A(28,33,29)           109.4811         estimate D2E/DX2                !
 ! A64   A(31,35,36)           109.2077         estimate D2E/DX2                !
 ! D1    D(6,1,2,3)              1.0191         estimate D2E/DX2                !
 ! D2    D(6,1,2,7)           -178.9177         estimate D2E/DX2                !
 ! D3    D(13,1,2,3)          -176.325          estimate D2E/DX2                !
 ! D4    D(13,1,2,7)             3.7382         estimate D2E/DX2                !
 ! D5    D(2,1,6,5)             -1.6709         estimate D2E/DX2                !
 ! D6    D(2,1,6,11)           177.8996         estimate D2E/DX2                !
 ! D7    D(13,1,6,5)           175.7364         estimate D2E/DX2                !
 ! D8    D(13,1,6,11)           -4.6931         estimate D2E/DX2                !
 ! D9    D(2,1,13,14)          101.9647         estimate D2E/DX2                !
 ! D10   D(2,1,13,15)          -32.6384         estimate D2E/DX2                !
 ! D11   D(2,1,13,16)         -145.7225         estimate D2E/DX2                !
 ! D12   D(6,1,13,14)          -75.4896         estimate D2E/DX2                !
 ! D13   D(6,1,13,15)          149.9072         estimate D2E/DX2                !
 ! D14   D(6,1,13,16)           36.8232         estimate D2E/DX2                !
 ! D15   D(1,2,3,4)              0.2364         estimate D2E/DX2                !
 ! D16   D(1,2,3,8)           -179.9796         estimate D2E/DX2                !
 ! D17   D(7,2,3,4)           -179.8281         estimate D2E/DX2                !
 ! D18   D(7,2,3,8)             -0.0441         estimate D2E/DX2                !
 ! D19   D(2,3,4,5)             -0.8079         estimate D2E/DX2                !
 ! D20   D(2,3,4,9)            179.5426         estimate D2E/DX2                !
 ! D21   D(8,3,4,5)            179.409          estimate D2E/DX2                !
 ! D22   D(8,3,4,9)             -0.2405         estimate D2E/DX2                !
 ! D23   D(3,4,5,6)              0.1335         estimate D2E/DX2                !
 ! D24   D(3,4,5,10)          -179.5244         estimate D2E/DX2                !
 ! D25   D(9,4,5,6)            179.7842         estimate D2E/DX2                !
 ! D26   D(9,4,5,10)             0.1263         estimate D2E/DX2                !
 ! D27   D(4,5,6,1)              1.0723         estimate D2E/DX2                !
 ! D28   D(4,5,6,11)          -178.4976         estimate D2E/DX2                !
 ! D29   D(10,5,6,1)          -179.2628         estimate D2E/DX2                !
 ! D30   D(10,5,6,11)            1.1673         estimate D2E/DX2                !
 ! D31   D(1,6,11,12)          -17.1438         estimate D2E/DX2                !
 ! D32   D(1,6,11,21)          161.8107         estimate D2E/DX2                !
 ! D33   D(5,6,11,12)          162.4154         estimate D2E/DX2                !
 ! D34   D(5,6,11,21)          -18.6301         estimate D2E/DX2                !
 ! D35   D(6,11,12,16)          -3.5647         estimate D2E/DX2                !
 ! D36   D(6,11,12,23)         175.6907         estimate D2E/DX2                !
 ! D37   D(21,11,12,16)        177.5679         estimate D2E/DX2                !
 ! D38   D(21,11,12,23)         -3.1767         estimate D2E/DX2                !
 ! D39   D(6,11,21,22)         178.7088         estimate D2E/DX2                !
 ! D40   D(12,11,21,22)         -2.349          estimate D2E/DX2                !
 ! D41   D(11,12,16,13)         43.6462         estimate D2E/DX2                !
 ! D42   D(11,12,16,17)        -91.1251         estimate D2E/DX2                !
 ! D43   D(23,12,16,13)       -135.6242         estimate D2E/DX2                !
 ! D44   D(23,12,16,17)         89.6045         estimate D2E/DX2                !
 ! D45   D(11,12,23,24)          8.2999         estimate D2E/DX2                !
 ! D46   D(11,12,23,25)       -171.8189         estimate D2E/DX2                !
 ! D47   D(16,12,23,24)       -172.4199         estimate D2E/DX2                !
 ! D48   D(16,12,23,25)          7.4613         estimate D2E/DX2                !
 ! D49   D(1,13,16,12)         -54.4617         estimate D2E/DX2                !
 ! D50   D(1,13,16,17)          80.1032         estimate D2E/DX2                !
 ! D51   D(14,13,16,12)         59.0715         estimate D2E/DX2                !
 ! D52   D(14,13,16,17)       -166.3636         estimate D2E/DX2                !
 ! D53   D(15,13,16,12)       -168.2609         estimate D2E/DX2                !
 ! D54   D(15,13,16,17)        -33.696          estimate D2E/DX2                !
 ! D55   D(12,16,17,18)        -56.2905         estimate D2E/DX2                !
 ! D56   D(12,16,17,19)         63.1819         estimate D2E/DX2                !
 ! D57   D(12,16,17,20)       -174.8513         estimate D2E/DX2                !
 ! D58   D(13,16,17,18)        170.0977         estimate D2E/DX2                !
 ! D59   D(13,16,17,19)        -70.4299         estimate D2E/DX2                !
 ! D60   D(13,16,17,20)         51.537          estimate D2E/DX2                !
 ! D61   D(12,23,25,26)          6.5595         estimate D2E/DX2                !
 ! D62   D(12,23,25,27)       -179.2462         estimate D2E/DX2                !
 ! D63   D(24,23,25,26)       -173.5605         estimate D2E/DX2                !
 ! D64   D(24,23,25,27)          0.6339         estimate D2E/DX2                !
 ! D65   D(23,25,27,28)       -178.6717         estimate D2E/DX2                !
 ! D66   D(23,25,27,30)          1.9507         estimate D2E/DX2                !
 ! D67   D(26,25,27,28)         -4.4573         estimate D2E/DX2                !
 ! D68   D(26,25,27,30)        176.1651         estimate D2E/DX2                !
 ! D69   D(25,27,28,33)       -179.6527         estimate D2E/DX2                !
 ! D70   D(30,27,28,33)         -0.1696         estimate D2E/DX2                !
 ! D71   D(25,27,30,29)        179.3859         estimate D2E/DX2                !
 ! D72   D(25,27,30,34)         -0.3957         estimate D2E/DX2                !
 ! D73   D(28,27,30,29)         -0.0173         estimate D2E/DX2                !
 ! D74   D(28,27,30,34)       -179.7988         estimate D2E/DX2                !
 ! D75   D(27,28,33,29)          0.2985         estimate D2E/DX2                !
 ! D76   D(31,29,30,27)        179.7694         estimate D2E/DX2                !
 ! D77   D(31,29,30,34)         -0.4529         estimate D2E/DX2                !
 ! D78   D(33,29,30,27)          0.2076         estimate D2E/DX2                !
 ! D79   D(33,29,30,34)        179.9854         estimate D2E/DX2                !
 ! D80   D(30,29,31,32)       -128.898          estimate D2E/DX2                !
 ! D81   D(30,29,31,35)        109.7852         estimate D2E/DX2                !
 ! D82   D(30,29,31,37)        -11.8333         estimate D2E/DX2                !
 ! D83   D(33,29,31,32)         50.6418         estimate D2E/DX2                !
 ! D84   D(33,29,31,35)        -70.6749         estimate D2E/DX2                !
 ! D85   D(33,29,31,37)        167.7066         estimate D2E/DX2                !
 ! D86   D(30,29,33,28)         -0.326          estimate D2E/DX2                !
 ! D87   D(31,29,33,28)       -179.9662         estimate D2E/DX2                !
 ! D88   D(29,31,35,36)          0.0            estimate D2E/DX2                !
 ! D89   D(32,31,35,36)       -119.611          estimate D2E/DX2                !
 ! D90   D(37,31,35,36)        119.2488         estimate D2E/DX2                !
 --------------------------------------------------------------------------------
 Trust Radius=3.00D-01 FncErr=1.00D-07 GrdErr=1.00D-06 EigMax=2.50D+02 EigMin=1.00D-04
 Number of steps in this run=    203 maximum allowed number of steps=    222.
 GradGradGradGradGradGradGradGradGradGradGradGradGradGradGradGradGradGrad

                          Input orientation:                          
 ---------------------------------------------------------------------
 Center     Atomic      Atomic             Coordinates (Angstroms)
 Number     Number       Type             X           Y           Z
 ---------------------------------------------------------------------
      1          6           0       -3.441024   -0.243260   -0.098869
      2          6           0       -4.792431   -0.538201   -0.007340
      3          6           0       -5.697444    0.504903    0.170822
      4          6           0       -5.241620    1.819344    0.249382
      5          6           0       -3.883272    2.104586    0.168284
      6          6           0       -2.958652    1.070372    0.003633
      7          1           0       -5.122423   -1.571983   -0.074536
      8          1           0       -6.760270    0.290533    0.244801
      9          1           0       -5.952258    2.631093    0.381020
     10          1           0       -3.521615    3.126596    0.236586
     11          6           0       -1.519596    1.348095   -0.051239
     12          6           0       -0.581365    0.367339    0.142677
     13         16           0       -2.261802   -1.535857   -0.424116
     14          8           0       -1.873777   -1.478364   -1.820707
     15          8           0       -2.733334   -2.769197    0.183217
     16          7           0       -0.956443   -0.971523    0.484685
     17          6           0       -1.032715   -1.242754    1.931336
     18          1           0       -0.061582   -0.990907    2.368240
     19          1           0       -1.809559   -0.636638    2.420417
     20          1           0       -1.233895   -2.303271    2.092463
     21          8           0       -1.205368    2.607178   -0.322528
     22          1           0       -0.213232    2.669379   -0.310477
     23          6           0        0.839532    0.666838   -0.013118
     24          8           0        1.251137    1.827067   -0.171425
     25          7           0        1.672648   -0.412068    0.030377
     26          1           0        1.240631   -1.331584    0.062532
     27          6           0        3.053116   -0.373836   -0.078888
     28          7           0        3.700456   -1.519530   -0.041814
     29          6           0        5.149405    0.150849   -0.260833
     30          6           0        3.925004    0.738140   -0.218552
     31          6           0        6.523669    0.692075   -0.398633
     32          1           0        7.034248    0.151262   -1.210439
     33          8           0        5.031922   -1.182924   -0.161831
     34          1           0        3.666386    1.784097   -0.272374
     35          8           0        7.199516    0.531590    0.830750
     36          1           0        6.609419    0.110403    1.463894
     37          1           0        6.445602    1.750942   -0.688546
 ---------------------------------------------------------------------
                    Distance matrix (angstroms):
                    1          2          3          4          5
     1  C    0.000000
     2  C    1.386243   0.000000
     3  C    2.392470   1.392428   0.000000
     4  C    2.760029   2.413648   1.393450   0.000000
     5  C    2.404025   2.800310   2.418721   1.390341   0.000000
     6  C    1.403146   2.439339   2.801551   2.415221   1.397008
     7  H    2.143175   1.087251   2.168941   3.408846   3.887366
     8  H    3.379414   2.150062   1.086750   2.154897   3.402023
     9  H    3.846881   3.397123   2.151696   1.086863   2.145500
    10  H    3.387470   3.886542   3.407614   2.160437   1.086262
    11  C    2.495309   3.777762   4.267868   3.763763   2.491472
    12  C    2.934080   4.309940   5.118006   4.882385   3.731122
    13  S    1.779651   2.751927   4.040085   4.537652   4.029011
    14  O    2.635616   3.562408   4.745521   5.148059   4.564174
    15  O    2.638324   3.041962   4.416541   5.229779   5.007628
    16  N    2.654062   3.891614   4.975483   5.119282   4.257803
    17  C    3.304644   4.288394   5.283314   5.469945   4.736952
    18  H    4.250439   5.313121   6.231295   6.262576   5.387689
    19  H    3.027082   3.847235   4.634592   4.745975   4.109343
    20  H    3.730550   4.493086   5.612648   6.037778   5.490980
    21  O    3.629487   4.781190   4.984145   4.151999   2.768513
    22  H    4.352802   5.599065   5.915504   5.130369   3.743981
    23  C    4.377076   5.759441   6.541568   6.194965   4.940132
    24  O    5.129122   6.492005   7.081527   6.506384   5.153113
    25  N    5.118090   6.466419   7.428245   7.268718   6.100886
    26  H    4.809199   6.085407   7.177834   7.209912   6.170318
    27  C    6.495483   7.847595   8.798116   8.586061   7.370017
    28  N    7.254851   8.549463   9.615824   9.549534   8.407811
    29  C    8.600990   9.968909  10.861207  10.536489   9.251512
    30  C    7.432082   8.812907   9.633147   9.242021   7.936371
    31  C   10.012982  11.389504  12.235805  11.836920  10.517652
    32  H   10.541469  11.907693  12.811281  12.474394  11.176251
    33  O    8.525124   9.846697  10.866403  10.711133   9.507754
    34  H    7.392940   8.775813   9.461188   8.923343   7.569295
    35  O   10.709140  12.068705  12.913861  12.521109  11.213446
    36  H   10.177363  11.514661  12.380895  12.035059  10.758808
    37  H   10.102967  11.489021  12.237021  11.724997  10.370384
                    6          7          8          9         10
     6  C    0.000000
     7  H    3.416146   0.000000
     8  H    3.888266   2.500697   0.000000
     9  H    3.397050   4.308365   2.479851   0.000000
    10  H    2.144587   4.973533   4.304905   2.484836   0.000000
    11  C    1.466637   4.637646   5.354507   4.634806   2.693323
    12  C    2.482958   4.942607   6.180226   5.833342   4.033285
    13  S    2.731483   2.882128   4.900955   5.624161   4.874641
    14  O    3.316810   3.689387   5.592239   6.194291   5.305985
    15  O    3.850365   2.684680   5.057861   6.289971   5.948496
    16  N    2.899929   4.246018   5.944303   6.160175   4.841099
    17  C    3.574328   4.567015   6.164435   6.450742   5.306413
    18  H    4.270041   5.649506   7.143074   7.194998   5.785292
    19  H    3.174137   4.251438   5.486574   5.656780   4.675701
    20  H    4.326600   4.511243   6.378283   7.038461   6.177491
    21  O    2.354179   5.733254   6.045299   4.798804   2.438730
    22  H    3.192620   6.491916   6.987914   5.780662   3.384335
    23  C    3.819597   6.368752   7.613483   7.081105   5.013219
    24  O    4.280836   7.223932   8.168037   7.269151   4.963306
    25  N    4.862847   6.894157   8.464853   8.217236   6.288484
    26  H    4.838062   6.369069   8.165715   8.218388   6.525692
    27  C    6.183357   8.262870   9.841174   9.504624   7.455175
    28  N    7.145165   8.823096  10.620041  10.515767   8.591991
    29  C    8.164316  10.416972  11.921222  11.393441   9.180909
    30  C    6.895249   9.338809  10.704678  10.074873   7.833518
    31  C    9.498386  11.868549  13.305573  12.649759  10.355584
    32  H   10.108253  12.330633  13.871764  13.316593  11.062221
    33  O    8.303854  10.162171  11.890846  11.640173   9.586120
    34  H    6.669086   9.409866  10.545774   9.677946   7.329987
    35  O   10.206017  12.532946  13.974157  13.325889  11.046707
    36  H    9.726350  11.951289  13.426363  12.857769  10.641502
    37  H    9.454220  12.051475  13.319121  12.474998  10.104143
                   11         12         13         14         15
    11  C    0.000000
    12  C    1.371045   0.000000
    13  S    3.001181   2.601399   0.000000
    14  O    3.353406   2.988616   1.450633   0.000000
    15  O    4.298863   3.804007   1.453383   2.533930   0.000000
    16  N    2.446423   1.431853   1.687707   2.532434   2.545556
    17  C    3.298508   2.448554   2.672961   3.852366   2.877161
    18  H    3.667508   2.658597   3.596553   4.590092   3.882641
    19  H    3.183132   2.775703   3.017364   4.324322   3.225869
    20  H    4.243767   3.370403   2.824657   4.050040   2.471968
    21  O    1.325755   2.371218   4.276811   4.402609   5.612118
    22  H    1.876055   2.374923   4.679056   4.716140   6.014379
    23  C    2.455819   1.460452   3.826102   3.902732   4.960872
    24  O    2.814395   2.363796   4.869687   4.838501   6.093228
    25  N    3.646266   2.387606   4.116960   4.140124   4.999209
    26  H    3.848698   2.492475   3.541976   3.642481   4.227729
    27  C    4.886257   3.715896   5.451406   5.341179   6.268130
    28  N    5.955863   4.682767   5.974524   5.851344   6.557893
    29  C    6.778857   5.749036   7.602475   7.376492   8.417923
    30  C    5.481214   4.536005   6.594686   6.411369   7.536332
    31  C    8.077447   7.133020   9.063599   8.789209   9.900053
    32  H    8.714608   7.737905   9.480571   9.076399  10.289656
    33  O    7.024292   5.831383   7.306967   7.108293   7.933128
    34  H    5.208974   4.496983   6.796215   6.613198   7.867431
    35  O    8.801562   7.812972   9.765529   9.664098  10.486944
    36  H    8.361124   7.315669   9.218098   9.234577   9.859983
    37  H    8.000802   7.209962   9.310846   8.995681  10.268617
                   16         17         18         19         20
    16  N    0.000000
    17  C    1.473833   0.000000
    18  H    2.085409   1.094263   0.000000
    19  H    2.141731   1.100029   1.784279   0.000000
    20  H    2.106059   1.091390   1.781199   1.793491   0.000000
    21  O    3.677045   4.464492   4.636237   4.290820   5.472249
    22  H    3.800107   4.582801   4.538305   4.575564   5.616326
    23  C    2.481443   3.306471   3.038255   3.826072   4.189764
    24  O    3.624361   4.365935   4.014238   4.706947   5.325436
    25  N    2.726079   3.409204   2.967863   4.229479   4.034457
    26  H    2.266052   2.944218   2.669852   3.917427   3.344858
    27  C    4.092848   4.635734   4.008810   5.473682   5.178412
    28  N    4.718498   5.135449   4.498970   6.099373   5.432974
    29  C    6.252751   6.705695   5.947270   7.499094   7.232373
    30  C    5.219772   5.755427   5.057071   6.460603   6.419128
    31  C    7.713617   8.140716   7.338497   8.896921   8.680867
    32  H    8.245316   8.768690   8.028842   9.592540   9.235588
    33  O    6.026872   6.415976   5.690511   7.332960   6.752591
    34  H    5.434807   6.008304   5.345207   6.564835   6.805276
    35  O    8.300529   8.492892   7.576636   9.222539   8.986144
    36  H    7.705303   7.775073   6.821509   8.506010   8.230340
    37  H    7.973616   8.470609   7.694486   9.138592   9.118406
                   21         22         23         24         25
    21  O    0.000000
    22  H    0.994157   0.000000
    23  C    2.835890   2.281864   0.000000
    24  O    2.581825   1.695052   1.241214   0.000000
    25  N    4.186092   3.628779   1.363823   2.287383   0.000000
    26  H    4.652422   4.273237   2.039680   3.167321   1.016456
    27  C    5.203892   4.470327   2.446892   2.845991   1.385313
    28  N    6.416824   5.738997   3.600821   4.149178   2.311642
    29  C    6.813259   5.924807   4.347713   4.244313   3.534051
    30  C    5.461211   4.567618   3.093125   2.887481   2.541270
    31  C    7.963129   7.021634   5.697251   5.398094   4.993554
    32  H    8.643563   7.725077   6.330395   6.110012   5.532063
    33  O    7.300307   6.509530   4.584743   4.832647   3.451939
    34  H    4.941049   3.979524   3.050670   2.417740   2.981575
    35  O    8.733853   7.798806   6.417149   6.169751   5.663688
    36  H    8.396195   7.499688   5.981871   5.859385   5.167171
    37  H    7.707428   6.732498   5.749740   5.220697   5.289287
                   26         27         28         29         30
    26  H    0.000000
    27  C    2.054844   0.000000
    28  N    2.469200   1.316449   0.000000
    29  C    4.192933   2.168600   2.222069   0.000000
    30  C    3.401268   1.419924   2.275683   1.358623   0.000000
    31  C    5.676122   3.644604   3.604032   1.483414   2.605304
    32  H    6.114351   4.171996   3.907864   2.110541   3.315971
    33  O    3.800832   2.139434   1.378590   1.342592   2.217875
    34  H    3.962817   2.251713   3.311838   2.206123   1.078798
    35  O    6.290460   4.340492   4.148721   2.353608   3.444724
    36  H    5.732978   3.906656   3.658676   2.260080   3.229669
    37  H    6.095720   4.049114   4.318573   2.103179   2.756824
                   31         32         33         34         35
    31  C    0.000000
    32  H    1.100999   0.000000
    33  O    2.407697   2.624679   0.000000
    34  H    3.061457   3.858576   3.268046   0.000000
    35  O    1.412058   2.082886   2.936535   3.907514   0.000000
    36  H    1.953126   2.708174   2.608481   3.804908   0.962540
    37  H    1.100610   1.782653   3.299013   2.810399   2.088891
                   36         37
    36  H    0.000000
    37  H    2.711310   0.000000
 Stoichiometry    C14H13N3O6S
 Framework group  C1[X(C14H13N3O6S)]
 Deg. of freedom   105
 Full point group                 C1      NOp   1
 Largest Abelian subgroup         C1      NOp   1
 Largest concise Abelian subgroup C1      NOp   1
                         Standard orientation:                         
 ---------------------------------------------------------------------
 Center     Atomic      Atomic             Coordinates (Angstroms)
 Number     Number       Type             X           Y           Z
 ---------------------------------------------------------------------
      1          6           0       -3.432235   -0.247559   -0.097628
      2          6           0       -4.782849   -0.545505   -0.004141
      3          6           0       -5.689809    0.495466    0.176580
      4          6           0       -5.236687    1.810807    0.255703
      5          6           0       -3.879094    2.099059    0.172626
      6          6           0       -2.952524    1.067007    0.005392
      7          1           0       -5.110724   -1.579928   -0.071827
      8          1           0       -6.752045    0.278730    0.252116
      9          1           0       -5.948852    2.620890    0.389343
     10          1           0       -3.519527    3.121778    0.241354
     11          6           0       -1.514164    1.347888   -0.051601
     12          6           0       -0.573499    0.368963    0.139762
     13         16           0       -2.250776   -1.537283   -0.426142
     14          8           0       -1.865209   -1.477552   -1.823320
     15          8           0       -2.718634   -2.772245    0.180735
     16          7           0       -0.945120   -0.971047    0.481047
     17          6           0       -1.018390   -1.243893    1.927550
     18          1           0       -0.047074   -0.990391    2.363087
     19          1           0       -1.795721   -0.639944    2.418536
     20          1           0       -1.217015   -2.305002    2.087945
     21          8           0       -1.203103    2.607917   -0.322146
     22          1           0       -0.211085    2.672245   -0.311688
     23          6           0        0.846487    0.671682   -0.018101
     24          8           0        1.255326    1.832954   -0.175927
     25          7           0        1.681997   -0.405468    0.022918
     26          1           0        1.252017   -1.325946    0.054868
     27          6           0        3.062195   -0.364150   -0.088611
     28          7           0        3.712063   -1.508482   -0.053771
     29          6           0        5.157042    0.165236   -0.273525
     30          6           0        3.931451    0.749843   -0.228610
     31          6           0        6.529905    0.709563   -0.413072
     32          1           0        7.040291    0.170666   -1.226273
     33          8           0        5.042599   -1.168885   -0.175670
     34          1           0        3.670490    1.795293   -0.280948
     35          8           0        7.208148    0.549302    0.815019
     36          1           0        6.620019    0.126209    1.448723
     37          1           0        6.449072    1.768549   -0.701789
 ---------------------------------------------------------------------
 Rotational constants (GHZ):           0.6065514           0.1033533           0.0930675
 Standard basis: 6-31+G(d,p) (6D, 7F)
 There are   525 symmetry adapted cartesian basis functions of A   symmetry.
 There are   525 symmetry adapted basis functions of A   symmetry.
   525 basis functions,   883 primitive gaussians,   525 cartesian basis functions
    91 alpha electrons       91 beta electrons
       nuclear repulsion energy      2263.5000477386 Hartrees.
 NAtoms=   37 NActive=   37 NUniq=   37 SFac= 1.00D+00 NAtFMM=   60 NAOKFM=F Big=F
 Integral buffers will be    131072 words long.
 Raffenetti 2 integral format.
 Two-electron integral symmetry is turned on.
 One-electron integrals computed using PRISM.
 NBasis=   525 RedAO= T EigKep=  1.52D-06  NBF=   525
 NBsUse=   522 1.00D-06 EigRej=  6.96D-07 NBFU=   522
 ExpMin= 4.05D-02 ExpMax= 2.19D+04 ExpMxC= 3.30D+03 IAcc=3 IRadAn=         5 AccDes= 0.00D+00
 Harris functional with IExCor= 1009 and IRadAn=       5 diagonalized for initial guess.
 HarFok:  IExCor= 1009 AccDes= 0.00D+00 IRadAn=         5 IDoV= 1 UseB2=F ITyADJ=14
 ICtDFT=  3500011 ScaDFX=  1.000000  1.000000  1.000000  1.000000
 FoFCou: FMM=F IPFlag=           0 FMFlag=      100000 FMFlg1=           0
         NFxFlg=           0 DoJE=T BraDBF=F KetDBF=T FulRan=T
         wScrn=  0.000000 ICntrl=       500 IOpCl=  0 I1Cent=   200000004 NGrid=           0
         NMat0=    1 NMatS0=      1 NMatT0=    0 NMatD0=    1 NMtDS0=    0 NMtDT0=    0
 Petite list used in FoFCou.
 Requested convergence on RMS density matrix=1.00D-08 within 128 cycles.
 Requested convergence on MAX density matrix=1.00D-06.
 Requested convergence on             energy=1.00D-06.
 No special actions if energy rises.
 SCF Done:  E(RM06) =  -1554.34834571     A.U. after   17 cycles
            NFock= 17  Conv=0.16D-08     -V/T= 2.0084

 **********************************************************************

            Population analysis using the SCF Density.

 **********************************************************************

 Orbital symmetries:
       Occupied  (A) (A) (A) (A) (A) (A) (A) (A) (A) (A) (A) (A)
                 (A) (A) (A) (A) (A) (A) (A) (A) (A) (A) (A) (A)
                 (A) (A) (A) (A) (A) (A) (A) (A) (A) (A) (A) (A)
                 (A) (A) (A) (A) (A) (A) (A) (A) (A) (A) (A) (A)
                 (A) (A) (A) (A) (A) (A) (A) (A) (A) (A) (A) (A)
                 (A) (A) (A) (A) (A) (A) (A) (A) (A) (A) (A) (A)
                 (A) (A) (A) (A) (A) (A) (A) (A) (A) (A) (A) (A)
                 (A) (A) (A) (A) (A) (A) (A)
       Virtual   (A) (A) (A) (A) (A) (A) (A) (A) (A) (A) (A) (A)
                 (A) (A) (A) (A) (A) (A) (A) (A) (A) (A) (A) (A)
                 (A) (A) (A) (A) (A) (A) (A) (A) (A) (A) (A) (A)
                 (A) (A) (A) (A) (A) (A) (A) (A) (A) (A) (A) (A)
                 (A) (A) (A) (A) (A) (A) (A) (A) (A) (A) (A) (A)
                 (A) (A) (A) (A) (A) (A) (A) (A) (A) (A) (A) (A)
                 (A) (A) (A) (A) (A) (A) (A) (A) (A) (A) (A) (A)
                 (A) (A) (A) (A) (A) (A) (A) (A) (A) (A) (A) (A)
                 (A) (A) (A) (A) (A) (A) (A) (A) (A) (A) (A) (A)
                 (A) (A) (A) (A) (A) (A) (A) (A) (A) (A) (A) (A)
                 (A) (A) (A) (A) (A) (A) (A) (A) (A) (A) (A) (A)
                 (A) (A) (A) (A) (A) (A) (A) (A) (A) (A) (A) (A)
                 (A) (A) (A) (A) (A) (A) (A) (A) (A) (A) (A) (A)
                 (A) (A) (A) (A) (A) (A) (A) (A) (A) (A) (A) (A)
                 (A) (A) (A) (A) (A) (A) (A) (A) (A) (A) (A) (A)
                 (A) (A) (A) (A) (A) (A) (A) (A) (A) (A) (A) (A)
                 (A) (A) (A) (A) (A) (A) (A) (A) (A) (A) (A) (A)
                 (A) (A) (A) (A) (A) (A) (A) (A) (A) (A) (A) (A)
                 (A) (A) (A) (A) (A) (A) (A) (A) (A) (A) (A) (A)
                 (A) (A) (A) (A) (A) (A) (A) (A) (A) (A) (A) (A)
                 (A) (A) (A) (A) (A) (A) (A) (A) (A) (A) (A) (A)
                 (A) (A) (A) (A) (A) (A) (A) (A) (A) (A) (A) (A)
                 (A) (A) (A) (A) (A) (A) (A) (A) (A) (A) (A) (A)
                 (A) (A) (A) (A) (A) (A) (A) (A) (A) (A) (A) (A)
                 (A) (A) (A) (A) (A) (A) (A) (A) (A) (A) (A) (A)
                 (A) (A) (A) (A) (A) (A) (A) (A) (A) (A) (A) (A)
                 (A) (A) (A) (A) (A) (A) (A) (A) (A) (A) (A) (A)
                 (A) (A) (A) (A) (A) (A) (A) (A) (A) (A) (A) (A)
                 (A) (A) (A) (A) (A) (A) (A) (A) (A) (A) (A) (A)
                 (A) (A) (A) (A) (A) (A) (A) (A) (A) (A) (A) (A)
                 (A) (A) (A) (A) (A) (A) (A) (A) (A) (A) (A) (A)
                 (A) (A) (A) (A) (A) (A) (A) (A) (A) (A) (A) (A)
                 (A) (A) (A) (A) (A) (A) (A) (A) (A) (A) (A) (A)
                 (A) (A) (A) (A) (A) (A) (A) (A) (A) (A) (A) (A)
                 (A) (A) (A) (A) (A) (A) (A) (A) (A) (A) (A) (A)
                 (A) (A) (A) (A) (A) (A) (A) (A) (A) (A) (A)
 The electronic state is 1-A.
 Alpha  occ. eigenvalues --  -89.31515 -19.34939 -19.30090 -19.26162 -19.26052
 Alpha  occ. eigenvalues --  -19.25777 -19.25155 -14.48542 -14.48238 -14.47795
 Alpha  occ. eigenvalues --  -10.40858 -10.38356 -10.35945 -10.35083 -10.33728
 Alpha  occ. eigenvalues --  -10.32838 -10.32586 -10.32399 -10.31700 -10.31101
 Alpha  occ. eigenvalues --  -10.30834 -10.30756 -10.30662 -10.28642  -8.28130
 Alpha  occ. eigenvalues --   -6.19950  -6.19853  -6.19747  -1.19907  -1.16985
 Alpha  occ. eigenvalues --   -1.13743  -1.10000  -1.07417  -1.06147  -1.00862
 Alpha  occ. eigenvalues --   -0.99205  -0.92332  -0.89425  -0.84269  -0.83901
 Alpha  occ. eigenvalues --   -0.81991  -0.80106  -0.75118  -0.73858  -0.72406
 Alpha  occ. eigenvalues --   -0.69070  -0.68327  -0.65299  -0.64389  -0.62114
 Alpha  occ. eigenvalues --   -0.61520  -0.59448  -0.58163  -0.57398  -0.54430
 Alpha  occ. eigenvalues --   -0.53395  -0.53029  -0.52632  -0.51465  -0.50825
 Alpha  occ. eigenvalues --   -0.50436  -0.49641  -0.49158  -0.48615  -0.48303
 Alpha  occ. eigenvalues --   -0.47697  -0.47230  -0.46921  -0.46180  -0.45327
 Alpha  occ. eigenvalues --   -0.44480  -0.43169  -0.42890  -0.42211  -0.41693
 Alpha  occ. eigenvalues --   -0.40442  -0.38691  -0.38206  -0.37688  -0.36871
 Alpha  occ. eigenvalues --   -0.36013  -0.34489  -0.34274  -0.33820  -0.31931
 Alpha  occ. eigenvalues --   -0.31233  -0.30885  -0.30330  -0.30050  -0.28864
 Alpha  occ. eigenvalues --   -0.26830
 Alpha virt. eigenvalues --   -0.09439  -0.05491  -0.03864  -0.03569  -0.02964
 Alpha virt. eigenvalues --   -0.02343  -0.01938  -0.01542  -0.01161  -0.00970
 Alpha virt. eigenvalues --   -0.00502   0.00047   0.00343   0.00819   0.01022
 Alpha virt. eigenvalues --    0.01207   0.01540   0.02310   0.02760   0.02934
 Alpha virt. eigenvalues --    0.03403   0.04047   0.04161   0.04541   0.04864
 Alpha virt. eigenvalues --    0.05052   0.05432   0.05810   0.05920   0.06621
 Alpha virt. eigenvalues --    0.06859   0.07161   0.07330   0.08056   0.08335
 Alpha virt. eigenvalues --    0.08550   0.08883   0.09140   0.09299   0.09889
 Alpha virt. eigenvalues --    0.10167   0.10686   0.10960   0.11143   0.11757
 Alpha virt. eigenvalues --    0.12170   0.12511   0.12912   0.13363   0.13512
 Alpha virt. eigenvalues --    0.13728   0.14087   0.14316   0.14412   0.14810
 Alpha virt. eigenvalues --    0.15537   0.15883   0.16084   0.16393   0.16671
 Alpha virt. eigenvalues --    0.17202   0.17382   0.17832   0.18290   0.18513
 Alpha virt. eigenvalues --    0.18882   0.19038   0.19353   0.19772   0.20156
 Alpha virt. eigenvalues --    0.20236   0.20451   0.20817   0.21208   0.21439
 Alpha virt. eigenvalues --    0.21697   0.22043   0.22454   0.22758   0.23129
 Alpha virt. eigenvalues --    0.23222   0.23392   0.24255   0.24468   0.24788
 Alpha virt. eigenvalues --    0.24923   0.25066   0.25453   0.25931   0.26155
 Alpha virt. eigenvalues --    0.26520   0.26704   0.27043   0.27402   0.27720
 Alpha virt. eigenvalues --    0.27991   0.28451   0.28672   0.28893   0.29682
 Alpha virt. eigenvalues --    0.29694   0.30197   0.30654   0.30939   0.31507
 Alpha virt. eigenvalues --    0.31943   0.31958   0.32518   0.32781   0.33048
 Alpha virt. eigenvalues --    0.33315   0.34024   0.34251   0.34742   0.34971
 Alpha virt. eigenvalues --    0.35518   0.36312   0.36674   0.37164   0.37596
 Alpha virt. eigenvalues --    0.37971   0.38986   0.39278   0.39771   0.40844
 Alpha virt. eigenvalues --    0.41257   0.42417   0.42518   0.46364   0.46881
 Alpha virt. eigenvalues --    0.47944   0.48345   0.49858   0.50805   0.51925
 Alpha virt. eigenvalues --    0.53134   0.53697   0.54681   0.56924   0.59166
 Alpha virt. eigenvalues --    0.60376   0.62173   0.62857   0.63500   0.64225
 Alpha virt. eigenvalues --    0.65150   0.65381   0.66342   0.66585   0.67900
 Alpha virt. eigenvalues --    0.68942   0.69826   0.70141   0.70582   0.70785
 Alpha virt. eigenvalues --    0.71712   0.72327   0.72829   0.73507   0.74384
 Alpha virt. eigenvalues --    0.74921   0.75071   0.76326   0.76820   0.78421
 Alpha virt. eigenvalues --    0.79054   0.80276   0.81798   0.82267   0.83672
 Alpha virt. eigenvalues --    0.84435   0.84845   0.86483   0.87211   0.87799
 Alpha virt. eigenvalues --    0.88095   0.88678   0.90222   0.91020   0.91837
 Alpha virt. eigenvalues --    0.92645   0.93627   0.94078   0.94680   0.95349
 Alpha virt. eigenvalues --    0.96082   0.97501   0.97909   0.98067   0.99219
 Alpha virt. eigenvalues --    0.99645   1.02076   1.02165   1.03037   1.03933
 Alpha virt. eigenvalues --    1.04577   1.06601   1.07316   1.08140   1.08978
 Alpha virt. eigenvalues --    1.09886   1.10930   1.11636   1.11834   1.12862
 Alpha virt. eigenvalues --    1.14294   1.15377   1.15699   1.16682   1.17568
 Alpha virt. eigenvalues --    1.18194   1.19303   1.20222   1.20824   1.21996
 Alpha virt. eigenvalues --    1.22624   1.23088   1.23329   1.23776   1.24229
 Alpha virt. eigenvalues --    1.25927   1.26426   1.27292   1.28646   1.29622
 Alpha virt. eigenvalues --    1.29886   1.30373   1.31281   1.32361   1.32642
 Alpha virt. eigenvalues --    1.32812   1.33249   1.34235   1.34796   1.35109
 Alpha virt. eigenvalues --    1.36751   1.36982   1.37384   1.38308   1.38859
 Alpha virt. eigenvalues --    1.39624   1.40575   1.40921   1.42082   1.42858
 Alpha virt. eigenvalues --    1.44276   1.45529   1.46913   1.47239   1.49311
 Alpha virt. eigenvalues --    1.50071   1.50304   1.50607   1.52710   1.53514
 Alpha virt. eigenvalues --    1.54916   1.56875   1.57086   1.61051   1.61617
 Alpha virt. eigenvalues --    1.62999   1.65351   1.66564   1.67430   1.68363
 Alpha virt. eigenvalues --    1.69321   1.70719   1.72683   1.73610   1.75445
 Alpha virt. eigenvalues --    1.76379   1.77480   1.78248   1.79348   1.80405
 Alpha virt. eigenvalues --    1.80868   1.81194   1.82661   1.83104   1.84287
 Alpha virt. eigenvalues --    1.85407   1.86608   1.86932   1.87308   1.87953
 Alpha virt. eigenvalues --    1.88293   1.88629   1.89464   1.89799   1.91251
 Alpha virt. eigenvalues --    1.91647   1.92648   1.92869   1.93519   1.94418
 Alpha virt. eigenvalues --    1.95371   1.96534   1.97500   1.97685   1.99766
 Alpha virt. eigenvalues --    2.00901   2.01349   2.02412   2.02894   2.03364
 Alpha virt. eigenvalues --    2.04583   2.05479   2.06249   2.06918   2.08138
 Alpha virt. eigenvalues --    2.10040   2.10784   2.12494   2.12950   2.14341
 Alpha virt. eigenvalues --    2.15825   2.17246   2.18808   2.20520   2.21912
 Alpha virt. eigenvalues --    2.23310   2.23976   2.26780   2.27315   2.29003
 Alpha virt. eigenvalues --    2.29661   2.30650   2.30798   2.32661   2.33362
 Alpha virt. eigenvalues --    2.33779   2.35207   2.36031   2.36905   2.38399
 Alpha virt. eigenvalues --    2.41153   2.42078   2.43250   2.44158   2.44466
 Alpha virt. eigenvalues --    2.46008   2.46805   2.47640   2.49445   2.50093
 Alpha virt. eigenvalues --    2.50856   2.52336   2.52674   2.53543   2.55714
 Alpha virt. eigenvalues --    2.56053   2.56823   2.57766   2.58657   2.59319
 Alpha virt. eigenvalues --    2.59490   2.60216   2.64127   2.64810   2.65688
 Alpha virt. eigenvalues --    2.65808   2.67320   2.69404   2.70476   2.72562
 Alpha virt. eigenvalues --    2.73293   2.73777   2.74730   2.75151   2.77364
 Alpha virt. eigenvalues --    2.80075   2.82489   2.84997   2.85859   2.88138
 Alpha virt. eigenvalues --    2.90570   2.91636   2.92783   2.93558   2.94736
 Alpha virt. eigenvalues --    2.96763   2.97417   2.99447   3.02192   3.04064
 Alpha virt. eigenvalues --    3.07744   3.09896   3.13477   3.15350   3.16407
 Alpha virt. eigenvalues --    3.20335   3.21622   3.24927   3.25704   3.27061
 Alpha virt. eigenvalues --    3.28935   3.32030   3.37170   3.38799   3.39761
 Alpha virt. eigenvalues --    3.40474   3.42996   3.50865   3.54480   3.62244
 Alpha virt. eigenvalues --    3.64252   3.73974   3.96445   4.16406   4.22770
 Alpha virt. eigenvalues --    4.24386   4.26541   4.28150   4.31928   4.33116
 Alpha virt. eigenvalues --    4.33744   4.37593   4.37963   4.42401   4.44417
 Alpha virt. eigenvalues --    4.46652   4.49952   4.50177   4.56850   4.59172
 Alpha virt. eigenvalues --    4.65822   4.67940   4.75303   4.77889   4.85228
 Alpha virt. eigenvalues --    4.88882
          Condensed to atoms (all electrons):
               1          2          3          4          5          6
     1  C   23.929796  -6.196056   0.627319  -0.376296   0.247161  -5.557543
     2  C   -6.196056  13.538383  -0.808235  -1.344496   3.118917  -3.445154
     3  C    0.627319  -0.808235   8.471970   0.182630  -0.198085  -1.943107
     4  C   -0.376296  -1.344496   0.182630   9.645033  -3.750584   3.088201
     5  C    0.247161   3.118917  -0.198085  -3.750584  15.196737  -9.015561
     6  C   -5.557543  -3.445154  -1.943107   3.088201  -9.015561  31.729533
     7  H    0.050034   0.261173   0.022898   0.003641  -0.017040  -0.075081
     8  H    0.047888   0.007384   0.216881   0.056873   0.011710  -0.016347
     9  H   -0.021188   0.007458   0.068640   0.201873   0.012349   0.061326
    10  H    0.003358  -0.025312   0.010088  -0.072333   0.283880  -0.104997
    11  C   -1.982078  -2.192902  -0.558170   0.722937  -2.574735   9.590676
    12  C    0.438500   0.594950  -0.099308  -1.953477   1.735734 -12.742899
    13  S   -2.026149   1.571098   0.085479  -0.396092   0.882068  -2.417889
    14  O    0.099354  -0.050321  -0.010232   0.004130  -0.003110  -0.036136
    15  O   -0.103251   0.079276   0.140303  -0.022129   0.038908  -0.472135
    16  N   -1.019112   0.222985  -0.142060   0.212904  -0.122731   1.631123
    17  C   -0.003694   0.107086   0.068995   0.030324  -0.081301   0.319420
    18  H    0.005020  -0.002557   0.000334  -0.002392  -0.002206  -0.080134
    19  H   -0.007938  -0.014762  -0.005267   0.013993  -0.010055   0.154056
    20  H    0.015122  -0.001208   0.000826   0.000165  -0.000273  -0.006081
    21  O   -0.172312   0.019104  -0.010193   0.039632   0.091125  -0.666165
    22  H    0.017851   0.002258  -0.000040  -0.006105  -0.007784   0.107359
    23  C   -0.483331   0.275164  -0.135712  -0.287601   0.223093  -4.348336
    24  O    0.003939  -0.004191   0.000538   0.000836  -0.009109   0.073005
    25  N   -0.123422  -0.032745  -0.010197   0.006745   0.024700  -0.191491
    26  H   -0.003767  -0.001458  -0.000233   0.000095  -0.000114   0.007291
    27  C   -0.099941  -0.025822  -0.008957   0.002674   0.017956  -0.359104
    28  N   -0.002658  -0.000432  -0.000039   0.000137   0.001494   0.000359
    29  C   -0.016003  -0.000800  -0.000188   0.000749   0.009312  -0.018796
    30  C   -0.005731   0.003487  -0.000862  -0.001175   0.000574  -0.045441
    31  C   -0.001477  -0.000072  -0.000008   0.000043   0.000694  -0.003771
    32  H   -0.000000  -0.000000  -0.000000   0.000000   0.000000  -0.000000
    33  O    0.000242   0.000042   0.000001  -0.000005  -0.000111   0.000737
    34  H    0.000067  -0.000007   0.000001  -0.000003  -0.000127   0.000012
    35  O   -0.000002  -0.000000  -0.000000   0.000000   0.000001  -0.000010
    36  H   -0.000000  -0.000000   0.000000  -0.000000  -0.000000  -0.000001
    37  H    0.000000   0.000000  -0.000000  -0.000000  -0.000000  -0.000000
               7          8          9         10         11         12
     1  C    0.050034   0.047888  -0.021188   0.003358  -1.982078   0.438500
     2  C    0.261173   0.007384   0.007458  -0.025312  -2.192902   0.594950
     3  C    0.022898   0.216881   0.068640   0.010088  -0.558170  -0.099308
     4  C    0.003641   0.056873   0.201873  -0.072333   0.722937  -1.953477
     5  C   -0.017040   0.011710   0.012349   0.283880  -2.574735   1.735734
     6  C   -0.075081  -0.016347   0.061326  -0.104997   9.590676 -12.742899
     7  H    0.498350  -0.004414  -0.000135   0.000014   0.003938  -0.005051
     8  H   -0.004414   0.522528  -0.004759  -0.000142  -0.001482   0.000899
     9  H   -0.000135  -0.004759   0.524869  -0.004551  -0.012281   0.000752
    10  H    0.000014  -0.000142  -0.004551   0.515009   0.132610   0.066114
    11  C    0.003938  -0.001482  -0.012281   0.132610  24.862831 -10.899231
    12  C   -0.005051   0.000899   0.000752   0.066114 -10.899231  26.071910
    13  S    0.074409  -0.004131  -0.000117   0.003083  -1.686900  -0.198752
    14  O   -0.001200  -0.000001   0.000002  -0.000000   0.015512  -0.197072
    15  O    0.001373   0.000139  -0.000001   0.000015  -0.182627   0.410774
    16  N   -0.000666  -0.000045  -0.000016   0.000045   1.395212  -3.693314
    17  C   -0.001308  -0.000015  -0.000003   0.000150   0.218274  -1.349621
    18  H    0.000000   0.000000   0.000000   0.000000  -0.183422   0.067637
    19  H   -0.000002  -0.000000  -0.000000  -0.000007   0.122171  -0.123077
    20  H    0.000001   0.000000  -0.000000  -0.000000   0.019799   0.019847
    21  O    0.000007   0.000004   0.000187  -0.003182  -0.047117   0.462566
    22  H   -0.000000   0.000000  -0.000000   0.000001   0.157270  -0.197527
    23  C   -0.000481  -0.000058  -0.000171   0.015596  -8.268185   7.766783
    24  O   -0.000000   0.000000   0.000000  -0.000134  -0.035225  -0.200423
    25  N   -0.000038  -0.000000   0.000000  -0.000022  -0.475188   0.257348
    26  H   -0.000000  -0.000000   0.000000   0.000000   0.023367  -0.000314
    27  C    0.000020   0.000000  -0.000000   0.000087  -1.485245   0.388063
    28  N   -0.000000  -0.000000   0.000000  -0.000000   0.016402  -0.082669
    29  C    0.000000   0.000000  -0.000000   0.000001  -0.006532  -0.239075
    30  C   -0.000000  -0.000000  -0.000000  -0.000002  -0.515676   0.126825
    31  C    0.000000   0.000000  -0.000000   0.000000  -0.020005  -0.059165
    32  H    0.000000   0.000000   0.000000  -0.000000   0.000047  -0.000048
    33  O    0.000000   0.000000  -0.000000   0.000000   0.001532   0.021286
    34  H    0.000000   0.000000  -0.000000   0.000000   0.000881  -0.001366
    35  O    0.000000  -0.000000   0.000000  -0.000000  -0.000122  -0.000532
    36  H   -0.000000   0.000000   0.000000  -0.000000  -0.000003  -0.000095
    37  H   -0.000000   0.000000  -0.000000   0.000000  -0.000183   0.000017
              13         14         15         16         17         18
     1  C   -2.026149   0.099354  -0.103251  -1.019112  -0.003694   0.005020
     2  C    1.571098  -0.050321   0.079276   0.222985   0.107086  -0.002557
     3  C    0.085479  -0.010232   0.140303  -0.142060   0.068995   0.000334
     4  C   -0.396092   0.004130  -0.022129   0.212904   0.030324  -0.002392
     5  C    0.882068  -0.003110   0.038908  -0.122731  -0.081301  -0.002206
     6  C   -2.417889  -0.036136  -0.472135   1.631123   0.319420  -0.080134
     7  H    0.074409  -0.001200   0.001373  -0.000666  -0.001308   0.000000
     8  H   -0.004131  -0.000001   0.000139  -0.000045  -0.000015   0.000000
     9  H   -0.000117   0.000002  -0.000001  -0.000016  -0.000003   0.000000
    10  H    0.003083  -0.000000   0.000015   0.000045   0.000150   0.000000
    11  C   -1.686900   0.015512  -0.182627   1.395212   0.218274  -0.183422
    12  C   -0.198752  -0.197072   0.410774  -3.693314  -1.349621   0.067637
    13  S   17.659764   0.461006   0.546551   0.063107   0.109384   0.052788
    14  O    0.461006   8.406677  -0.211198   0.001605   0.068034  -0.000177
    15  O    0.546551  -0.211198   8.620369  -0.282941  -0.118462   0.001273
    16  N    0.063107   0.001605  -0.282941  10.772767   0.509191  -0.027704
    17  C    0.109384   0.068034  -0.118462   0.509191   5.586862   0.383005
    18  H    0.052788  -0.000177   0.001273  -0.027704   0.383005   0.532100
    19  H   -0.093455  -0.001560  -0.000877  -0.029130   0.399165  -0.031261
    20  H   -0.002653   0.000516  -0.001491  -0.086099   0.415620  -0.018408
    21  O    0.019914  -0.000237  -0.000673   0.007231  -0.004542   0.000716
    22  H    0.000949  -0.000039   0.000019  -0.001368  -0.000956  -0.000006
    23  C    0.174644  -0.067119   0.047405  -1.151003  -0.284594   0.094033
    24  O   -0.009159   0.000621   0.000211   0.025633   0.011932  -0.001546
    25  N   -0.050484  -0.028538   0.001463  -0.266345  -0.114955   0.009697
    26  H   -0.006556  -0.000347  -0.000262   0.008954  -0.008026  -0.000973
    27  C   -0.064745  -0.034157   0.004476  -0.367824  -0.105585   0.034102
    28  N   -0.001530   0.000172  -0.000166  -0.008234  -0.005450  -0.000251
    29  C    0.020206   0.000514  -0.000448   0.057908   0.013314   0.001111
    30  C   -0.018524  -0.003051   0.000694  -0.065667  -0.034506  -0.002011
    31  C    0.001936   0.000065  -0.000012   0.005118   0.000414   0.000025
    32  H   -0.000001   0.000000   0.000000   0.000000  -0.000001   0.000000
    33  O    0.000418  -0.000022   0.000002  -0.000474  -0.000286   0.000027
    34  H    0.000015  -0.000001   0.000000   0.000042  -0.000039   0.000000
    35  O    0.000003   0.000000  -0.000000   0.000003   0.000004   0.000000
    36  H   -0.000000  -0.000000   0.000000  -0.000000   0.000005  -0.000000
    37  H    0.000001  -0.000000  -0.000000  -0.000001   0.000002  -0.000000
              19         20         21         22         23         24
     1  C   -0.007938   0.015122  -0.172312   0.017851  -0.483331   0.003939
     2  C   -0.014762  -0.001208   0.019104   0.002258   0.275164  -0.004191
     3  C   -0.005267   0.000826  -0.010193  -0.000040  -0.135712   0.000538
     4  C    0.013993   0.000165   0.039632  -0.006105  -0.287601   0.000836
     5  C   -0.010055  -0.000273   0.091125  -0.007784   0.223093  -0.009109
     6  C    0.154056  -0.006081  -0.666165   0.107359  -4.348336   0.073005
     7  H   -0.000002   0.000001   0.000007  -0.000000  -0.000481  -0.000000
     8  H   -0.000000   0.000000   0.000004   0.000000  -0.000058   0.000000
     9  H   -0.000000  -0.000000   0.000187  -0.000000  -0.000171   0.000000
    10  H   -0.000007  -0.000000  -0.003182   0.000001   0.015596  -0.000134
    11  C    0.122171   0.019799  -0.047117   0.157270  -8.268185  -0.035225
    12  C   -0.123077   0.019847   0.462566  -0.197527   7.766783  -0.200423
    13  S   -0.093455  -0.002653   0.019914   0.000949   0.174644  -0.009159
    14  O   -0.001560   0.000516  -0.000237  -0.000039  -0.067119   0.000621
    15  O   -0.000877  -0.001491  -0.000673   0.000019   0.047405   0.000211
    16  N   -0.029130  -0.086099   0.007231  -0.001368  -1.151003   0.025633
    17  C    0.399165   0.415620  -0.004542  -0.000956  -0.284594   0.011932
    18  H   -0.031261  -0.018408   0.000716  -0.000006   0.094033  -0.001546
    19  H    0.532249  -0.027677  -0.001015   0.000003  -0.043459   0.000412
    20  H   -0.027677   0.484092  -0.000027   0.000000  -0.012300   0.000081
    21  O   -0.001015  -0.000027   8.459299   0.157403   0.179134  -0.017976
    22  H    0.000003   0.000000   0.157403   0.307912  -0.058829   0.065684
    23  C   -0.043459  -0.012300   0.179134  -0.058829  12.561368   0.272675
    24  O    0.000412   0.000081  -0.017976   0.065684   0.272675   8.479566
    25  N   -0.001243  -0.004290  -0.001917   0.007446   0.765147  -0.195596
    26  H    0.000080   0.000008   0.000060  -0.000049  -0.078810   0.008609
    27  C   -0.005639  -0.000781  -0.007987   0.010060  -1.153172   0.120122
    28  N    0.000022  -0.000053   0.000054  -0.000013  -0.301698   0.004338
    29  C   -0.000147   0.000183   0.001082  -0.001238  -0.907432   0.091966
    30  C    0.000444  -0.000270   0.015941  -0.008296   0.700217  -0.039559
    31  C   -0.000003   0.000003   0.000204  -0.000048  -0.167623   0.007606
    32  H    0.000000   0.000000  -0.000000   0.000000   0.001362  -0.000006
    33  O    0.000000  -0.000002   0.000004   0.000000   0.071903  -0.001463
    34  H   -0.000000   0.000000  -0.000060   0.000036   0.030475  -0.007524
    35  O   -0.000000   0.000000   0.000000   0.000000   0.000542  -0.000053
    36  H    0.000000  -0.000000  -0.000000   0.000000   0.000019  -0.000002
    37  H   -0.000000  -0.000000   0.000000  -0.000000  -0.001347   0.000026
              25         26         27         28         29         30
     1  C   -0.123422  -0.003767  -0.099941  -0.002658  -0.016003  -0.005731
     2  C   -0.032745  -0.001458  -0.025822  -0.000432  -0.000800   0.003487
     3  C   -0.010197  -0.000233  -0.008957  -0.000039  -0.000188  -0.000862
     4  C    0.006745   0.000095   0.002674   0.000137   0.000749  -0.001175
     5  C    0.024700  -0.000114   0.017956   0.001494   0.009312   0.000574
     6  C   -0.191491   0.007291  -0.359104   0.000359  -0.018796  -0.045441
     7  H   -0.000038  -0.000000   0.000020  -0.000000   0.000000  -0.000000
     8  H   -0.000000  -0.000000   0.000000  -0.000000   0.000000  -0.000000
     9  H    0.000000   0.000000  -0.000000   0.000000  -0.000000  -0.000000
    10  H   -0.000022   0.000000   0.000087  -0.000000   0.000001  -0.000002
    11  C   -0.475188   0.023367  -1.485245   0.016402  -0.006532  -0.515676
    12  C    0.257348  -0.000314   0.388063  -0.082669  -0.239075   0.126825
    13  S   -0.050484  -0.006556  -0.064745  -0.001530   0.020206  -0.018524
    14  O   -0.028538  -0.000347  -0.034157   0.000172   0.000514  -0.003051
    15  O    0.001463  -0.000262   0.004476  -0.000166  -0.000448   0.000694
    16  N   -0.266345   0.008954  -0.367824  -0.008234   0.057908  -0.065667
    17  C   -0.114955  -0.008026  -0.105585  -0.005450   0.013314  -0.034506
    18  H    0.009697  -0.000973   0.034102  -0.000251   0.001111  -0.002011
    19  H   -0.001243   0.000080  -0.005639   0.000022  -0.000147   0.000444
    20  H   -0.004290   0.000008  -0.000781  -0.000053   0.000183  -0.000270
    21  O   -0.001917   0.000060  -0.007987   0.000054   0.001082   0.015941
    22  H    0.007446  -0.000049   0.010060  -0.000013  -0.001238  -0.008296
    23  C    0.765147  -0.078810  -1.153172  -0.301698  -0.907432   0.700217
    24  O   -0.195596   0.008609   0.120122   0.004338   0.091966  -0.039559
    25  N    7.620252   0.254269   0.339379  -0.161826  -0.278701  -0.039237
    26  H    0.254269   0.368607   0.021295   0.017185   0.050846  -0.008190
    27  C    0.339379   0.021295  14.678236  -0.946503  -0.784181  -1.349717
    28  N   -0.161826   0.017185  -0.946503   7.633123   0.885359  -0.364351
    29  C   -0.278701   0.050846  -0.784181   0.885359  17.184089  -6.984013
    30  C   -0.039237  -0.008190  -1.349717  -0.364351  -6.984013  15.320361
    31  C   -0.064671   0.003580  -3.278699   0.872491  -2.334895  -1.645821
    32  H   -0.000219  -0.000000  -0.043821   0.001973  -0.032148  -0.055672
    33  O    0.044455  -0.002159   0.037222   0.015148  -0.169343   0.266845
    34  H   -0.001928  -0.000103   0.154979  -0.009429   0.000464   0.203982
    35  O    0.000238  -0.000002  -0.073495   0.000660  -0.130150  -0.003335
    36  H   -0.000001  -0.000000  -0.013454  -0.003343   0.022953  -0.037693
    37  H    0.000288   0.000000   0.031521  -0.005551  -0.275012   0.164559
              31         32         33         34         35         36
     1  C   -0.001477  -0.000000   0.000242   0.000067  -0.000002  -0.000000
     2  C   -0.000072  -0.000000   0.000042  -0.000007  -0.000000  -0.000000
     3  C   -0.000008  -0.000000   0.000001   0.000001  -0.000000   0.000000
     4  C    0.000043   0.000000  -0.000005  -0.000003   0.000000  -0.000000
     5  C    0.000694   0.000000  -0.000111  -0.000127   0.000001  -0.000000
     6  C   -0.003771  -0.000000   0.000737   0.000012  -0.000010  -0.000001
     7  H    0.000000   0.000000   0.000000   0.000000   0.000000  -0.000000
     8  H    0.000000   0.000000   0.000000   0.000000  -0.000000   0.000000
     9  H   -0.000000   0.000000  -0.000000  -0.000000   0.000000   0.000000
    10  H    0.000000  -0.000000   0.000000   0.000000  -0.000000  -0.000000
    11  C   -0.020005   0.000047   0.001532   0.000881  -0.000122  -0.000003
    12  C   -0.059165  -0.000048   0.021286  -0.001366  -0.000532  -0.000095
    13  S    0.001936  -0.000001   0.000418   0.000015   0.000003  -0.000000
    14  O    0.000065   0.000000  -0.000022  -0.000001   0.000000  -0.000000
    15  O   -0.000012   0.000000   0.000002   0.000000  -0.000000   0.000000
    16  N    0.005118   0.000000  -0.000474   0.000042   0.000003  -0.000000
    17  C    0.000414  -0.000001  -0.000286  -0.000039   0.000004   0.000005
    18  H    0.000025   0.000000   0.000027   0.000000   0.000000  -0.000000
    19  H   -0.000003   0.000000   0.000000  -0.000000  -0.000000   0.000000
    20  H    0.000003   0.000000  -0.000002   0.000000   0.000000  -0.000000
    21  O    0.000204  -0.000000   0.000004  -0.000060   0.000000  -0.000000
    22  H   -0.000048   0.000000   0.000000   0.000036   0.000000   0.000000
    23  C   -0.167623   0.001362   0.071903   0.030475   0.000542   0.000019
    24  O    0.007606  -0.000006  -0.001463  -0.007524  -0.000053  -0.000002
    25  N   -0.064671  -0.000219   0.044455  -0.001928   0.000238  -0.000001
    26  H    0.003580  -0.000000  -0.002159  -0.000103  -0.000002  -0.000000
    27  C   -3.278699  -0.043821   0.037222   0.154979  -0.073495  -0.013454
    28  N    0.872491   0.001973   0.015148  -0.009429   0.000660  -0.003343
    29  C   -2.334895  -0.032148  -0.169343   0.000464  -0.130150   0.022953
    30  C   -1.645821  -0.055672   0.266845   0.203982  -0.003335  -0.037693
    31  C   12.181860   0.518327  -0.244982  -0.050407   0.353026   0.010281
    32  H    0.518327   0.568443  -0.021220   0.000060  -0.053841   0.002792
    33  O   -0.244982  -0.021220   7.824241   0.008517   0.011982   0.001241
    34  H   -0.050407   0.000060   0.008517   0.471776   0.000052   0.000037
    35  O    0.353026  -0.053841   0.011982   0.000052   8.206437   0.263647
    36  H    0.010281   0.002792   0.001241   0.000037   0.263647   0.377207
    37  H    0.428392  -0.049453   0.016711  -0.000175  -0.055174   0.003581
              37
     1  C    0.000000
     2  C    0.000000
     3  C   -0.000000
     4  C   -0.000000
     5  C   -0.000000
     6  C   -0.000000
     7  H   -0.000000
     8  H    0.000000
     9  H   -0.000000
    10  H    0.000000
    11  C   -0.000183
    12  C    0.000017
    13  S    0.000001
    14  O   -0.000000
    15  O   -0.000000
    16  N   -0.000001
    17  C    0.000002
    18  H   -0.000000
    19  H   -0.000000
    20  H   -0.000000
    21  O    0.000000
    22  H   -0.000000
    23  C   -0.001347
    24  O    0.000026
    25  N    0.000288
    26  H    0.000000
    27  C    0.031521
    28  N   -0.005551
    29  C   -0.275012
    30  C    0.164559
    31  C    0.428392
    32  H   -0.049453
    33  O    0.016711
    34  H   -0.000175
    35  O   -0.055174
    36  H    0.003581
    37  H    0.593527
 Mulliken charges:
               1
     1  C   -1.283703
     2  C    0.337765
     3  C    0.033990
     4  C   -0.000926
     5  C   -0.103486
     6  C    0.783079
     7  H    0.189560
     8  H    0.167088
     9  H    0.165766
    10  H    0.180634
    11  C   -0.156149
    12  C   -0.386992
    13  S    1.250312
    14  O   -0.413691
    15  O   -0.496579
    16  N   -0.649094
    17  C   -0.127835
    18  H    0.171180
    19  H    0.173981
    20  H    0.205349
    21  O   -0.520265
    22  H    0.448046
    23  C    0.571703
    24  O   -0.645836
    25  N   -0.288374
    26  H    0.347117
    27  C    0.368639
    28  N   -0.554720
    29  C   -0.160957
    30  C    0.424869
    31  C   -0.512406
    32  H    0.163425
    33  O    0.117511
    34  H    0.199774
    35  O   -0.519881
    36  H    0.372831
    37  H    0.148273
 Sum of Mulliken charges =  -0.00000
 Mulliken charges with hydrogens summed into heavy atoms:
               1
     1  C   -1.283703
     2  C    0.527325
     3  C    0.201078
     4  C    0.164840
     5  C    0.077148
     6  C    0.783079
    11  C   -0.156149
    12  C   -0.386992
    13  S    1.250312
    14  O   -0.413691
    15  O   -0.496579
    16  N   -0.649094
    17  C    0.422675
    21  O   -0.072219
    23  C    0.571703
    24  O   -0.645836
    25  N    0.058743
    27  C    0.368639
    28  N   -0.554720
    29  C   -0.160957
    30  C    0.624643
    31  C   -0.200707
    33  O    0.117511
    35  O   -0.147050
 Electronic spatial extent (au):  <R**2>=          10879.5862
 Charge=             -0.0000 electrons
 Dipole moment (field-independent basis, Debye):
    X=             -4.3793    Y=              3.6826    Z=              2.9124  Tot=              6.4205
 Quadrupole moment (field-independent basis, Debye-Ang):
   XX=           -136.4114   YY=           -155.2705   ZZ=           -146.4592
   XY=             -4.8507   XZ=            -10.5285   YZ=             -4.8290
 Traceless Quadrupole moment (field-independent basis, Debye-Ang):
   XX=              9.6356   YY=             -9.2235   ZZ=             -0.4121
   XY=             -4.8507   XZ=            -10.5285   YZ=             -4.8290
 Octapole moment (field-independent basis, Debye-Ang**2):
  XXX=           -309.8779  YYY=             35.2320  ZZZ=             17.9708  XYY=             -1.2574
  XXY=             59.1875  XXZ=            -40.9426  XZZ=             41.9763  YZZ=             -5.1764
  YYZ=              5.0947  XYZ=            -14.6878
 Hexadecapole moment (field-independent basis, Debye-Ang**3):
 XXXX=         -12436.0152 YYYY=          -1843.6247 ZZZZ=           -525.7555 XXXY=           -129.6484
 XXXZ=           -453.1147 YYYX=            -45.5419 YYYZ=              3.2407 ZZZX=             33.6505
 ZZZY=            -25.0534 XXYY=          -2318.0563 XXZZ=          -2075.2568 YYZZ=           -397.5936
 XXYZ=            -63.8862 YYXZ=            -21.7882 ZZXY=              3.9106
 N-N= 2.263500047739D+03 E-N=-8.166682189225D+03  KE= 1.541458265762D+03
 Calling FoFJK, ICntrl=      2127 FMM=F ISym2X=0 I1Cent= 0 IOpClX= 0 NMat=1 NMatS=1 NMatT=0.
 ***** Axes restored to original set *****
 -------------------------------------------------------------------
 Center     Atomic                   Forces (Hartrees/Bohr)
 Number     Number              X              Y              Z
 -------------------------------------------------------------------
      1        6           0.000045986   -0.000024956    0.000072875
      2        6           0.000058210   -0.000078117   -0.000027805
      3        6           0.000026388    0.000050520    0.000000724
      4        6          -0.000018149    0.000020486    0.000005893
      5        6           0.000058095    0.000034211    0.000002930
      6        6          -0.000013541    0.000006313   -0.000019405
      7        1          -0.000006468    0.000004871   -0.000006281
      8        1           0.000016197    0.000000118   -0.000002678
      9        1           0.000015934   -0.000013959   -0.000004987
     10        1          -0.000029857    0.000009637    0.000003834
     11        6          -0.000298460    0.000706316   -0.000133362
     12        6           0.000730786   -0.000326050    0.000091152
     13       16          -0.000505453   -0.000339379   -0.000390457
     14        8           0.000108701    0.000058744    0.000173139
     15        8           0.000161761    0.000146918    0.000042525
     16        7           0.000357575    0.000080051    0.000123837
     17        6          -0.000100140    0.000021634   -0.000045778
     18        1          -0.000002188    0.000014824    0.000037276
     19        1           0.000025970   -0.000022116    0.000018429
     20        1          -0.000026796   -0.000007418    0.000003050
     21        8           0.000141493   -0.000475776    0.000132070
     22        1          -0.000242450    0.000172176   -0.000069006
     23        6          -0.001506655    0.001253516   -0.000202131
     24        8           0.000437469   -0.000543221    0.000150334
     25        7           0.001694240   -0.000846588    0.000071399
     26        1          -0.000195070   -0.000089418   -0.000098003
     27        6          -0.001806408   -0.000371369    0.000119350
     28        7          -0.001663107   -0.000937621    0.001178654
     29        6          -0.003627230    0.005377084   -0.010924311
     30        6          -0.000856279   -0.000352041    0.001040744
     31        6          -0.010384815   -0.005044572    0.003862296
     32        1           0.003048223    0.000661081    0.003280422
     33        8           0.001065182   -0.001782839    0.000355434
     34        1           0.000005406    0.000078854   -0.000319318
     35        8           0.009228747    0.003941504   -0.002017567
     36        1           0.001492922   -0.000350140    0.000598956
     37        1           0.002563779   -0.001033282    0.002895763
 -------------------------------------------------------------------
 Cartesian Forces:  Max     0.010924311 RMS     0.002077384

 GradGradGradGradGradGradGradGradGradGradGradGradGradGradGradGradGradGrad
 Berny optimization.
 FormGI is forming the generalized inverse of G from B-inverse, IUseBI=4.
 Internal  Forces:  Max     0.019816954 RMS     0.001864461
 Search for a local minimum.
 Step number   1 out of a maximum of  203
 All quantities printed in internal units (Hartrees-Bohrs-Radians)
 Mixed Optimization -- RFO/linear search
 Second derivative matrix not updated -- first step.
 ITU=  0
     Eigenvalues ---    0.00715   0.00985   0.01289   0.01301   0.01521
     Eigenvalues ---    0.01532   0.01636   0.01701   0.01715   0.01734
     Eigenvalues ---    0.01837   0.01886   0.01981   0.02016   0.02047
     Eigenvalues ---    0.02104   0.02154   0.02167   0.02170   0.02182
     Eigenvalues ---    0.02186   0.02198   0.02208   0.02233   0.02337
     Eigenvalues ---    0.02446   0.02674   0.03642   0.06678   0.07234
     Eigenvalues ---    0.07691   0.07814   0.09606   0.11197   0.11589
     Eigenvalues ---    0.11654   0.12513   0.13883   0.15963   0.16000
     Eigenvalues ---    0.16000   0.16000   0.16000   0.16000   0.16000
     Eigenvalues ---    0.16000   0.16000   0.16000   0.16000   0.18333
     Eigenvalues ---    0.19860   0.22000   0.22013   0.22059   0.22588
     Eigenvalues ---    0.23598   0.23819   0.24548   0.24977   0.24996
     Eigenvalues ---    0.24999   0.24999   0.24999   0.25000   0.25000
     Eigenvalues ---    0.25000   0.27382   0.33572   0.33615   0.33679
     Eigenvalues ---    0.34182   0.34325   0.34416   0.34653   0.35132
     Eigenvalues ---    0.35178   0.35191   0.35248   0.35285   0.36140
     Eigenvalues ---    0.36190   0.36908   0.38455   0.40244   0.41275
     Eigenvalues ---    0.42632   0.43679   0.44908   0.45445   0.46465
     Eigenvalues ---    0.46765   0.46958   0.47700   0.48144   0.48731
     Eigenvalues ---    0.49190   0.50456   0.52182   0.54180   0.54931
     Eigenvalues ---    0.60520   0.60887   0.86570   0.94444   0.95657
 RFO step:  Lambda=-3.41922102D-03 EMin= 7.15115486D-03
 Linear search not attempted -- first point.
 Iteration  1 RMS(Cart)=  0.03245529 RMS(Int)=  0.00108975
 Iteration  2 RMS(Cart)=  0.00129132 RMS(Int)=  0.00029251
 Iteration  3 RMS(Cart)=  0.00000134 RMS(Int)=  0.00029250
 Iteration  4 RMS(Cart)=  0.00000000 RMS(Int)=  0.00029250
 Variable       Old X    -DE/DX   Delta X   Delta X   Delta X     New X
                                 (Linear)    (Quad)   (Total)
    R1        2.61962  -0.00005   0.00000  -0.00011  -0.00011   2.61951
    R2        2.65156   0.00007   0.00000   0.00018   0.00018   2.65174
    R3        3.36305  -0.00000   0.00000   0.00003   0.00003   3.36309
    R4        2.63131   0.00004   0.00000   0.00009   0.00009   2.63140
[...]
 568,0.00011049,0.00005707,-0.00001792,-0.00001290,0.00000428,-0.000047
 95,-0.00001125,-0.00000933,-0.00007094,0.00003373,0.00000334,0.0001040
 9,-0.00004279,-0.00004620,0.00099743,-0.00383391,0.00079424,-0.0039763
 7,0.00296340,-0.00067595,0.00102027,0.00205260,0.00106342,-0.00009235,
 -0.00049895,-0.00049830,-0.00036042,-0.00094021,0.00005875,-0.00081218
 ,-0.00062216,0.00001456,0.00005440,-0.00003294,-0.00041516,0.00000069,
 0.00011430,-0.00020246,-0.00008165,0.00002231,0.00002014,-0.00007897,-
 0.00006261,0.00004315,-0.00033049,0.00237611,-0.00055625,0.00070514,-0
 .00068602,0.00011734,0.00597719,-0.01655455,0.00189194,0.00128928,0.00
 643987,-0.00067030,-0.02161053,0.01600833,0.00068724,0.00071347,0.0015
 7652,-0.00035220,-0.08161428,0.02551557,0.00338761,-0.20436272,0.04075
 340,0.00696502,-0.10356069,-0.00821147,0.00365692,-0.01940291,0.011012
 50,0.00202182,-0.00355466,-0.04634903,0.00202382,0.00340870,0.00144450
 ,-0.00020532,0.43382034,-0.00000951,-0.00001208,-0.00000669,0.00000064
 ,0.00002338,0.00001033,-0.00001462,-0.00001266,-0.00000096,0.00001251,
 0.00001653,-0.00000720,-0.00003016,-0.00000216,-0.00000469,0.00009958,
 0.00002663,0.00005967,0.00000602,-0.00000285,0.00000151,-0.00000115,0.
 00000117,-0.00000108,-0.00000577,0.00000120,0.00000217,-0.00001176,0.0
 0000435,0.00000072,-0.00010372,-0.00079991,0.00013840,-0.00026000,0.00
 012424,-0.00014595,0.00012383,-0.00020005,-0.00002949,-0.00005273,0.00
 009038,0.00000646,-0.00001494,0.00014193,-0.00002743,0.00012242,0.0002
 9626,0.00000352,0.00003787,0.00001852,0.00004459,-0.00000182,-0.000083
 49,-0.00003705,-0.00004511,0.00000414,-0.00002204,0.00005246,0.0000163
 7,-0.00001728,0.00046045,0.00070201,-0.00015985,-0.00048977,0.00002354
 ,-0.00002683,0.00113244,-0.00823471,0.00126483,0.00302638,0.00514310,-
 0.00080268,-0.00651469,0.00373160,0.00081204,0.00173278,-0.00110386,-0
 .00010313,0.02864673,-0.04618807,0.00177649,-0.08524446,-0.06728977,0.
 00762906,0.02822954,-0.27909278,0.01754193,0.06182401,-0.07097177,0.00
 404969,-0.01198506,-0.02476517,0.00108909,0.00231853,0.00134159,-0.000
 08218,-0.02855182,0.48283638,0.00001629,0.00001385,0.00003239,0.000035
 14,-0.00002379,-0.00002686,0.00001779,0.00003148,-0.00000197,-0.000023
 17,0.00001073,-0.00000137,0.00001994,0.00000203,-0.00000957,-0.0000767
 5,0.00005957,0.00012922,0.00000181,0.00000154,-0.00000160,0.00000433,0
 .00000114,0.00000383,0.00000559,-0.00000387,-0.00000129,-0.00000736,0.
 00000479,0.00000869,-0.00012577,0.00036776,-0.00027537,0.00036137,-0.0
 0030554,-0.00084235,-0.00004029,-0.00020362,-0.00019503,-0.00003543,0.
 00005386,0.00010652,0.00002507,0.00007606,0.00002749,0.00008016,0.0000
 6907,0.00013256,-0.00001877,-0.00000687,-0.00002148,-0.00000631,0.0000
 1966,0.00003414,0.00001640,-0.00000637,0.00001674,-0.00001005,-0.00000
 423,0.00000184,-0.00003693,-0.00033346,0.00008030,0.00002199,0.0000344
 1,-0.00006417,-0.00051089,0.00223018,0.00320960,-0.00027114,-0.0010114
 9,-0.00053178,0.00310728,-0.00076083,0.00884630,-0.00018848,-0.0000390
 5,-0.00168737,0.00252478,0.00338719,0.00492596,0.01953287,-0.00209444,
 -0.05929416,0.00179489,0.02154800,-0.06781796,-0.00329054,0.00667940,0
 .01420559,-0.00005564,0.00589124,-0.00419627,-0.00079452,-0.00028004,0
 .00031044,-0.02222803,-0.03501223,0.09185986,0.00001745,-0.00001772,0.
 00001920,0.00003755,-0.00002115,-0.00000747,0.00001854,0.00002384,-0.0
 0000041,-0.00001141,0.00001718,0.00000308,0.00002146,0.00002599,-0.000
 01110,0.00001132,0.00002290,-0.00000199,0.00000360,0.00000174,-0.00000
 045,0.00000713,0.00000233,0.00000008,0.00000915,-0.00000522,0.00000005
 ,-0.00002135,0.00000913,0.00000737,-0.00030672,0.00008836,-0.00000765,
 0.00032273,0.00020899,-0.00001454,-0.00013994,-0.00025783,-0.00016732,
 0.00001206,0.00007736,0.00007111,0.00006968,0.00015369,-0.00000706,0.0
 0024059,0.00022913,-0.00001926,0.00002170,0.00002650,0.00008502,-0.000
 00442,-0.00002756,0.00001011,-0.00000199,-0.00001038,-0.00001008,0.000
 01188,0.00001431,-0.00001317,0.00040732,-0.00002206,0.00000971,-0.0005
 7245,0.00023941,-0.00004917,-0.00090997,-0.00541784,0.00070964,-0.0012
 6647,0.00412661,-0.00038403,-0.00108814,0.00286371,-0.00031988,-0.0000
 9295,-0.00009468,0.00000971,0.01203226,-0.01753918,0.00052097,-0.00316
 066,-0.00559575,0.00108035,0.00287211,0.02207847,-0.00217710,-0.068034
 71,0.07779499,-0.00361833,0.00075902,0.00027190,-0.00041688,0.00016052
 ,-0.00013748,-0.00002248,-0.00454575,0.00424940,0.00040801,0.06313915,
 0.00000362,-0.00000241,0.00000389,0.00000533,-0.00000772,-0.00000158,0
 .00000389,0.00000491,-0.00000104,-0.00000248,-0.00000078,0.00000097,0.
 00000858,0.00000976,0.00000114,-0.00000700,0.00000021,-0.00000856,-0.0
 0000041,0.00000042,-0.00000013,0.00000090,-0.00000005,0.00000028,0.000
 00271,-0.00000050,-0.00000011,-0.00000006,0.00000188,0.00000144,-0.000
 05005,0.00009635,-0.00001775,0.00013694,0.00002816,0.00000622,-0.00003
 824,-0.00001984,0.00000037,0.00001474,0.00000500,-0.00000476,0.0000142
 2,0.00001633,-0.00000420,0.00003344,0.00001521,0.00000957,-0.00001066,
 0.00000080,0.00000225,-0.00000058,-0.00000525,0.00000341,0.00000303,-0
 .00000051,-0.00000025,0.00000255,0.00000082,-0.00000001,0.00015626,-0.
 00014037,0.00002530,-0.00009390,0.00020052,-0.00002361,-0.00087942,-0.
 00061029,0.00014236,0.00352376,-0.00106272,-0.00014051,0.00002687,0.00
 037218,-0.00015720,0.00000985,-0.00011392,0.00000172,0.00944893,-0.009
 38745,0.00010019,-0.00058754,-0.00228097,0.00062244,-0.00302639,-0.000
 46423,-0.00000094,0.07481104,-0.34782696,0.02245051,0.00024075,0.00015
 377,-0.00025511,-0.00000449,0.00002766,-0.00000461,-0.00146662,0.00143
 329,0.00075502,-0.08256083,0.35967229,-0.00000970,-0.00000918,-0.00001
 907,-0.00000523,0.00000137,0.00000445,-0.00000062,-0.00000379,0.000002
 50,0.00000204,-0.00000048,-0.00000558,-0.00000216,0.00000314,0.0000007
 6,0.00002191,-0.00000976,-0.00003182,0.00000005,-0.00000033,0.00000235
 ,-0.00000030,-0.00000037,0.00000081,0.00000005,0.00000007,0.00000256,0
 .00000189,-0.00000141,0.00000867,0.00001060,-0.00006169,0.00002105,-0.
 00001002,0.00004084,0.00033147,-0.00000034,0.00004475,0.00015052,0.000
 03105,-0.00000229,-0.00008637,0.00000167,-0.00000639,-0.00003777,-0.00
 002441,-0.00000320,-0.00003940,0.00001593,-0.00000918,0.00005338,-0.00
 000565,0.00001296,-0.00000148,0.00000885,0.00000204,-0.00000708,-0.000
 00012,0.00000111,-0.00000503,-0.00000088,0.00004961,-0.00008709,-0.000
 00019,-0.00001211,0.00016826,0.00015692,0.00027332,0.00039414,-0.00020
 818,-0.00014609,-0.00118702,-0.00012140,-0.00033314,-0.00148803,-0.000
 01155,0.00001653,-0.00013267,-0.00160369,0.00194505,-0.00222712,0.0006
 5058,0.00084499,0.00461229,-0.00012326,-0.00165120,-0.00242069,-0.0037
 9134,0.02219524,-0.02770085,0.00050957,-0.00020151,-0.00297000,0.00048
 899,-0.00011472,0.00015465,0.00084149,0.00054954,0.00866051,0.00398194
 ,-0.02349615,0.02369011,-0.00006348,0.00001084,-0.00007014,-0.00008898
 ,0.00008936,0.00003524,-0.00003729,-0.00006724,0.00000268,0.00003582,-
 0.00001779,-0.00000323,-0.00007620,-0.00005307,0.00000543,0.00001792,-
 0.00000640,0.00002334,0.00000433,-0.00000643,0.00000117,-0.00002150,-0
 .00000270,-0.00000255,-0.00002301,0.00001489,0.00000136,0.00003729,-0.
 00001329,-0.00001470,0.00040639,-0.00083488,0.00015400,-0.00097908,0.0
 0045744,-0.00010879,0.00060460,0.00053376,0.00028479,-0.00015477,-0.00
 010905,-0.00009787,-0.00019596,-0.00026112,0.00002849,-0.00050129,-0.0
 0015241,-0.00001518,0.00007491,-0.00001639,-0.00011448,0.00001555,0.00
 000380,-0.00007248,-0.00004079,0.00002691,-0.00000011,0.00000590,-0.00
 001132,-0.00000048,-0.00028855,0.00052639,-0.00011881,0.00042761,-0.00
 023597,0.00003640,0.00229604,-0.00137455,0.00005097,-0.00097087,0.0006
 0826,-0.00000217,-0.00217491,0.00013473,0.00030510,0.00009156,0.000209
 06,-0.00003309,0.00178141,0.00059784,0.00229602,-0.00375021,-0.0012546
 6,0.00118363,-0.03557974,0.00838069,-0.03726720,-0.00113250,-0.0036704
 7,0.00009140,-0.11563185,0.00765023,-0.09137325,0.00657048,-0.00150385
 ,-0.00432376,0.00366178,0.00414165,-0.00118409,0.00024207,-0.00015446,
 -0.00079665,0.16621455,0.00000261,0.00000047,-0.00000063,0.00000738,-0
 .00000168,-0.00000012,0.00000036,0.00000324,-0.00000185,-0.00000099,0.
 00000488,0.00000117,-0.00000034,0.00000044,-0.00000436,0.00000842,0.00
 000925,0.00000198,0.00000105,-0.00000029,0.00000117,0.00000169,0.00000
 028,0.00000069,-0.00000012,-0.00000119,0.00000115,-0.00000535,0.000001
 13,0.00000293,-0.00005120,-0.00007437,0.00001444,0.00001887,0.00000613
 ,-0.00000816,-0.00002249,-0.00008961,0.00002212,0.00000732,0.00002789,
 -0.00001198,0.00001183,0.00005596,-0.00002265,0.00003398,0.00004318,-0
 .00002513,0.00000775,-0.00000156,0.00003228,-0.00000164,-0.00001310,0.
 00000382,-0.00000201,-0.00000145,-0.00000532,0.00000913,0.00000536,-0.
 00000040,0.00007078,0.00008263,-0.00002450,-0.00007299,-0.00002195,0.0
 0001070,-0.00011741,-0.00045647,0.00008680,0.00021481,0.00029956,-0.00
 007192,-0.00019325,0.00041486,0.00011813,0.00002656,-0.00003015,0.0000
 3109,-0.00050421,-0.00073962,-0.00010218,0.00063056,0.00197836,-0.0005
 2061,-0.00198207,0.00273689,-0.00565212,0.00001299,0.00050444,-0.00015
 331,0.03448449,-0.10253239,0.05098104,-0.00565276,0.00739615,-0.002580
 36,-0.00025204,0.00147942,-0.00079074,-0.00036003,0.00009006,0.0002115
 9,-0.05428943,0.62527057,-0.00001634,0.00000628,-0.00000652,-0.0000373
 3,0.00003275,0.00001512,-0.00001486,-0.00002687,0.00000157,0.00001368,
 -0.00000792,0.00000365,-0.00002900,-0.00002197,0.00000912,-0.00000051,
 -0.00000443,0.00000351,0.00000068,-0.00000204,-0.00000364,-0.00000868,
 -0.00000085,-0.00000425,-0.00000935,0.00000616,-0.00000354,0.00001521,
 -0.00000442,-0.00001433,0.00016757,-0.00027846,0.00003396,-0.00038153,
 0.00019165,-0.00001078,0.00022377,0.00020102,-0.00007854,-0.00008795,-
 0.00004446,0.00006946,-0.00007586,-0.00012120,0.00007047,-0.00019340,-
 0.00006836,0.00008351,0.00000336,-0.00000055,-0.00013267,0.00001499,0.
 00001297,-0.00003730,-0.00002177,0.00001145,0.00001215,-0.00001181,-0.
 00001388,0.00000102,-0.00015015,0.00015971,0.00000504,0.00020400,-0.00
 009163,-0.00003792,0.00097832,-0.00039786,-0.00014648,-0.00050320,0.00
 016251,0.00015461,-0.00082592,-0.00018453,0.00024727,0.00000309,0.0001
 0743,-0.00005833,0.00062899,0.00034326,-0.00047603,-0.00259359,-0.0016
 7640,0.00075211,-0.01798157,0.00247259,-0.00490467,-0.00045918,-0.0022
 4541,-0.00020328,-0.08475080,0.01369482,-0.18615139,-0.02761201,0.0111
 0460,-0.03650500,0.00212006,0.00177656,0.00173361,0.00019709,-0.000021
 94,-0.00003067,0.15747100,-0.08889199,0.26391373,0.00002664,-0.0000042
 1,0.00003237,0.00003659,-0.00003740,-0.00001526,0.00001539,0.00002807,
 -0.00000020,-0.00001470,0.00000676,0.00000113,0.00003251,0.00002227,-0
 .00000018,-0.00000923,0.00000025,-0.00001142,-0.00000211,0.00000279,-0
 .00000135,0.00000892,0.00000109,0.00000064,0.00000955,-0.00000621,-0.0
 0000129,-0.00001500,0.00000548,0.00000468,-0.00016393,0.00038526,-0.00
 007694,0.00042866,-0.00021371,0.00005956,-0.00025279,-0.00021702,-0.00
 014752,0.00006077,0.00004309,0.00005835,0.00008205,0.00010110,-0.00000
 039,0.00018987,0.00005711,0.00002305,-0.00003692,0.00000637,0.00002684
 ,-0.00000458,0.00000370,0.00002831,0.00001722,-0.00001116,0.00000372,-
 0.00000689,0.00000257,0.00000055,0.00009415,-0.00024748,0.00006278,-0.
 00014695,0.00009424,-0.00002161,-0.00089243,0.00088669,-0.00008469,0.0
 0024369,-0.00039019,0.00003946,0.00124883,-0.00060165,-0.00008639,-0.0
 0011229,-0.00006777,-0.00000230,-0.00076133,0.00001638,-0.00001729,-0.
 00078496,-0.00098483,0.00060071,-0.00057987,0.00472329,-0.00071378,0.0
 0051281,-0.00038134,0.00006226,-0.00502578,0.02641212,-0.00496803,0.00
 087868,-0.00113469,0.00004460,0.00063083,-0.00065821,-0.00007697,0.000
 06082,-0.00002297,-0.00002686,-0.01723880,0.00318945,-0.01857754,0.023
 60361,-0.00000714,-0.00000122,-0.00000652,-0.00001046,0.00000794,0.000
 00314,-0.00000391,-0.00000697,0.00000042,0.00000342,-0.00000351,-0.000
 00061,-0.00000678,-0.00000540,0.00000154,0.00000049,-0.00000275,0.0000
 0218,-0.00000052,-0.00000020,-0.00000020,-0.00000230,-0.00000025,-0.00
 000035,-0.00000188,0.00000150,-0.00000014,0.00000509,-0.00000180,-0.00
 000191,0.00005307,-0.00005228,0.00000701,-0.00009432,0.00004529,-0.000
 00695,0.00005691,0.00009905,0.00002785,-0.00001186,-0.00002496,-0.0000
 1116,-0.00001994,-0.00005243,0.00000985,-0.00005589,-0.00003596,0.0000
 0364,0.00000497,0.00000123,-0.00001772,0.00000194,0.00000761,-0.000007
 69,-0.00000189,0.00000152,0.00000197,-0.00000505,-0.00000275,0.0000002
 8,-0.00005124,0.00001990,-0.00000430,0.00006409,-0.00001751,0.00000309
 ,0.00025966,0.00003434,-0.00001079,-0.00017356,-0.00003452,0.00001260,
 -0.00009107,-0.00014424,0.00002482,-0.00000701,0.00004088,-0.00000672,
 0.00028953,0.00013646,0.00011625,-0.00115991,-0.00079938,0.00017648,-0
 .00008260,0.00163640,-0.00134307,-0.00026643,-0.00057105,0.00007803,-0
 .00343869,-0.00789051,-0.00481184,-0.00106564,0.00080893,-0.00168957,0
 .00055836,0.00057901,-0.00024011,0.00008195,-0.00003640,-0.00006309,0.
 03570945,-0.52969488,0.05748685,-0.03132945,0.53399352,0.00000105,-0.0
 0000123,-0.00000375,0.00000726,-0.00000470,-0.00000304,0.00000330,0.00
 000495,-0.00000076,-0.00000221,0.00000160,-0.00000131,0.00000533,0.000
 00445,-0.00000224,-0.00000049,-0.00000078,0.00000046,0.00000038,0.0000
 0022,0.00000170,0.00000150,0.00000012,0.00000152,0.00000178,-0.0000010
 8,0.00000133,-0.00000280,0.00000064,0.00000376,-0.00002825,0.00005965,
 -0.00000717,0.00007974,-0.00005713,0.00000234,-0.00003430,-0.00003668,
 0.00005388,0.00002007,0.00000772,-0.00003418,0.00001169,0.00002621,-0.
 00002565,0.00002698,0.00001561,-0.00003610,0.00000601,-0.00000151,0.00
 004448,-0.00000385,-0.00000832,0.00000921,0.00000430,-0.00000192,-0.00
 000541,0.00000713,0.00000535,0.00000090,0.00002751,-0.00003100,-0.0000
 0379,-0.00003710,0.00001707,0.00001016,-0.00018015,0.00018442,0.000031
 80,0.00006684,-0.00007322,-0.00002729,0.00030083,-0.00014828,-0.000058
 32,-0.00001758,-0.00002203,0.00003664,0.00002323,0.00001384,0.00016366
 ,-0.00002392,-0.00052778,-0.00019377,-0.00103101,0.00012473,0.00121476
 ,0.00035373,-0.00001227,-0.00010606,-0.00456560,0.03691373,-0.00749654
 ,0.00063002,0.00076210,0.00036863,-0.00000146,0.00022446,-0.00044704,0
 .00002262,0.00000300,-0.00001426,-0.01946717,0.01346958,-0.03065311,0.
 02704125,-0.05142625,0.04144725,-0.00000082,-0.00000082,-0.00000224,-0
 .00000136,0.00000314,0.00000187,-0.00000176,-0.00000191,-0.00000014,0.
 00000099,0.00000054,0.00000055,-0.00000332,-0.00000144,-0.00000144,0.0
 0000418,0.00000384,0.00000142,0.00000020,-0.00000018,-0.00000003,-0.00
 000035,0.00000011,-0.00000023,-0.00000074,0.00000022,-0.00000001,-0.00
 000040,0.00000010,-0.00000041,-0.00000304,-0.00007247,0.00001745,-0.00
 004607,0.00004312,-0.00000969,0.00001622,0.00000395,0.00000228,-0.0000
 0557,0.00000126,-0.00000031,-0.00000390,-0.00000010,0.00000056,-0.0000
 0210,0.00001138,0.00000098,0.00000300,0.00000095,-0.00000333,0.0000011
 5,-0.00000332,-0.00000422,-0.00000363,0.00000036,-0.00000081,0.0000017
 1,0.00000035,-0.00000083,0.00002309,0.00005423,-0.00001211,-0.00002364
 ,-0.00000965,-0.00000130,0.00006592,-0.00045587,0.00004523,0.00015480,
 0.00023991,-0.00002764,-0.00035351,0.00045584,-0.00000363,0.00010051,-
 0.00003610,-0.00000654,0.00063713,-0.00046264,0.00002097,-0.00014667,-
 0.00120123,0.00017010,0.00461265,-0.03101406,0.00070633,0.00086288,0.0
 0072578,-0.00007607,-0.04840644,0.00214732,0.00288869,0.00082948,0.013
 74199,-0.00003624,-0.00730929,-0.00222193,0.00100742,-0.00032117,0.000
 45870,0.00001905,-0.00353842,0.02476830,-0.00769947,-0.00213301,0.0007
 9855,-0.00324664,0.05499133,-0.00000296,0.00000039,-0.00000433,-0.0000
 0387,0.00000522,0.00000195,-0.00000243,-0.00000349,0.,0.00000197,0.000
 00049,-0.00000018,-0.00000533,-0.00000316,-0.00000076,0.00000426,0.000
 00297,0.00000117,0.00000054,-0.00000051,0.00000040,-0.00000084,-0.0000
 0007,0.00000001,-0.00000151,0.00000058,0.00000044,0.00000057,-0.000000
 40,0.00000005,0.00000819,-0.00008954,0.00002001,-0.00006674,0.00004241
 ,-0.00000818,0.00003050,0.00000639,0.00002231,-0.00000768,0.00000200,-
 0.00000944,-0.00000864,0.00000023,-0.00000419,-0.00001947,0.00000581,-
 0.00000584,0.00000631,-0.00000090,0.00000030,0.00000085,-0.00000402,-0
 .00000441,-0.00000367,0.00000143,-0.00000153,0.00000316,0.00000066,-0.
 00000041,0.00000832,0.00006887,-0.00001880,-0.00000080,-0.00002238,0.0
 0000789,0.00012174,-0.00035256,0.00003699,0.00003081,0.00020932,-0.000
 02933,-0.00031156,0.00031926,-0.00002535,0.00005522,0.00000259,0.00000
 084,0.00024983,-0.00060110,0.00020855,0.00020988,0.00019970,0.00013751
 ,0.00173826,-0.01126761,-0.00101056,0.00046766,0.00096191,0.00007584,0
 .00434326,-0.31680835,0.01117975,-0.00100258,-0.00865592,0.00051520,-0
 .00258519,0.00072429,-0.00012030,-0.00054020,-0.00016924,-0.00006609,0
 .00494016,-0.00675245,0.00633457,0.00032022,0.00196539,0.00051474,-0.0
 0797824,0.34021180,-0.00000337,0.00000008,-0.00000427,-0.00000366,0.00
 000333,0.00000142,-0.00000158,-0.00000261,-0.00000017,0.00000133,-0.00
 000072,-0.00000036,-0.00000312,-0.00000198,-0.00000096,0.00000181,0.,0
 .00000050,0.00000014,-0.00000031,0.00000037,-0.00000080,-0.00000013,0.
 00000024,-0.00000088,0.00000054,0.00000060,0.00000152,-0.00000062,0.00
 000076,0.00001600,-0.00004207,0.00001030,-0.00004406,0.00002159,0.0000
 0132,0.00002331,0.00002225,0.00002654,-0.00000377,-0.00000362,-0.00001
 264,-0.00000725,-0.00000943,-0.00000279,-0.00002259,-0.00000562,-0.000
 00606,0.00000350,-0.00000091,-0.00000028,-0.00000055,0.00000204,-0.000
 00244,0.00000001,0.00000088,-0.00000007,-0.00000004,-0.00000038,-0.000
 00050,-0.00000849,0.00002712,-0.00001445,0.00001496,-0.00000941,0.0000
 1457,0.00009147,-0.00007861,0.00001104,-0.00003376,0.00002915,-0.00004
 145,-0.00013440,-0.00003050,-0.00002063,-0.00001222,0.00000754,0.00000
 205,-0.00018876,0.00031679,-0.00010924,0.00051907,0.00031528,0.0001500
 4,0.00246187,0.00600539,-0.00057064,-0.00061268,-0.00051666,-0.0003331
 7,0.00194972,0.00111487,-0.04591302,-0.00036797,-0.02449916,0.00280752
 ,0.00016758,-0.00049431,0.00109006,0.00011230,0.00000839,0.00023350,-0
 .00690482,0.03387765,-0.00765149,-0.00326024,0.00169297,-0.00427267,0.
 00625044,-0.01774879,0.05460649\\-0.00000013,0.00000154,0.00000070,0.0
 0000126,-0.00000216,-0.00000107,-0.00000012,0.00000008,-0.00000019,-0.
 00000096,-0.00000119,0.00000018,0.00000144,-0.00000114,0.00000016,-0.0
 0000229,-0.00000050,0.00000069,0.00000004,-0.00000060,-0.00000068,0.00
 000003,-0.00000135,-0.00000055,-0.00000026,-0.00000100,0.00000043,-0.0
 0000087,-0.00000035,0.00000077,0.00000072,-0.00000375,0.00000010,-0.00
 000167,0.00000482,0.00000101,-0.00000335,-0.00000087,-0.00000206,0.000
 00151,0.00000014,-0.00000105,0.00000125,-0.00000073,-0.00000011,0.0000
 0435,-0.00000188,0.00000036,0.00000002,-0.00000040,-0.00000137,-0.0000
 0005,-0.00000114,-0.00000041,-0.00000013,-0.00000116,-0.00000039,0.000
 00030,-0.00000100,-0.00000051,-0.00000125,-0.00000034,0.00000010,0.000
 00489,0.00000386,0.00000146,0.00000282,-0.00000614,-0.00000517,-0.0000
 0615,0.00000459,-0.00000251,0.00000324,0.00000010,0.00001034,-0.000000
 12,-0.00000094,0.00000115,0.00001333,0.00000135,-0.00001579,-0.0000079
 9,-0.00001973,0.00000308,0.00000169,0.00000285,-0.00000694,0.00000307,
 0.00000422,0.00002414,0.00000824,0.00000003,0.00000931,-0.00000459,-0.
 00000136,0.00000410,-0.00001043,0.00002013,-0.00000418,-0.00000115,-0.
 00000067,-0.00000819,-0.00001021,0.00000116,-0.00001203,0.00000057,0.0
 0000175,0.00000145,0.00000295,0.00000178,0.00000368\\\@
 The archive entry for this job was punched.


 ROSE IS A RED
 TY COBB IS BLUE
 'CAUSE PETE JUST HIT
 NO. 4592.
 Job cpu time:       0 days  7 hours 54 minutes  8.6 seconds.
 Elapsed time:       0 days  0 hours 22 minutes 35.7 seconds.
 File lengths (MBytes):  RWF=   1064 Int=      0 D2E=      0 Chk=     23 Scr=      1
 Normal termination of Gaussian 16 at Tue Feb 14 20:38:26 2023.
