 Entering Gaussian System, Link 0=g16
 Input=/home/user/WorkIMPORTANT/Akshay/OXICAMS/M06/Isoxicam/Drug/Negative/isoxicamM06.gjf
 Output=/home/user/WorkIMPORTANT/Akshay/OXICAMS/M06/Isoxicam/Drug/Negative/isoxicamM06.log
 Initial command:
 /home/user/gaussian/g16/l1.exe "/home/user/gaussian/scratch/Gau-2439715.inp" -scrdir="/home/user/gaussian/scratch/"
 Entering Link 1 = /home/user/gaussian/g16/l1.exe PID=   2439718.
  
 Copyright (c) 1988-2019, Gaussian, Inc.  All Rights Reserved.
  
 This is part of the Gaussian(R) 16 program.  It is based on
 the Gaussian(R) 09 system (copyright 2009, Gaussian, Inc.),
 the Gaussian(R) 03 system (copyright 2003, Gaussian, Inc.),
 the Gaussian(R) 98 system (copyright 1998, Gaussian, Inc.),
 the Gaussian(R) 94 system (copyright 1995, Gaussian, Inc.),
 the Gaussian 92(TM) system (copyright 1992, Gaussian, Inc.),
 the Gaussian 90(TM) system (copyright 1990, Gaussian, Inc.),
 the Gaussian 88(TM) system (copyright 1988, Gaussian, Inc.),
 the Gaussian 86(TM) system (copyright 1986, Carnegie Mellon
 University), and the Gaussian 82(TM) system (copyright 1983,
 Carnegie Mellon University). Gaussian is a federally registered
 trademark of Gaussian, Inc.
  
 This software contains proprietary and confidential information,
 including trade secrets, belonging to Gaussian, Inc.
  
 This software is provided under written license and may be
 used, copied, transmitted, or stored only in accord with that
 written license.
  
 The following legend is applicable only to US Government
 contracts under FAR:
  
                    RESTRICTED RIGHTS LEGEND
  
 Use, reproduction and disclosure by the US Government is
 subject to restrictions as set forth in subparagraphs (a)
 and (c) of the Commercial Computer Software - Restricted
 Rights clause in FAR 52.227-19.
  
 Gaussian, Inc.
 340 Quinnipiac St., Bldg. 40, Wallingford CT 06492
  
  
 ---------------------------------------------------------------
 Warning -- This program may not be used in any manner that
 competes with the business of Gaussian, Inc. or will provide
 assistance to any competitor of Gaussian, Inc.  The licensee
 of this program is prohibited from giving any competitor of
 Gaussian, Inc. access to this program.  By using this program,
 the user acknowledges that Gaussian, Inc. is engaged in the
 business of creating and licensing software in the field of
 computational chemistry and represents and warrants to the
 licensee that it is not a competitor of Gaussian, Inc. and that
 it will not use this program in any manner prohibited above.
 ---------------------------------------------------------------
  

 Cite this work as:
 Gaussian 16, Revision C.01,
 M. J. Frisch, G. W. Trucks, H. B. Schlegel, G. E. Scuseria, 
 M. A. Robb, J. R. Cheeseman, G. Scalmani, V. Barone, 
 G. A. Petersson, H. Nakatsuji, X. Li, M. Caricato, A. V. Marenich, 
 J. Bloino, B. G. Janesko, R. Gomperts, B. Mennucci, H. P. Hratchian, 
 J. V. Ortiz, A. F. Izmaylov, J. L. Sonnenberg, D. Williams-Young, 
 F. Ding, F. Lipparini, F. Egidi, J. Goings, B. Peng, A. Petrone, 
 T. Henderson, D. Ranasinghe, V. G. Zakrzewski, J. Gao, N. Rega, 
 G. Zheng, W. Liang, M. Hada, M. Ehara, K. Toyota, R. Fukuda, 
 J. Hasegawa, M. Ishida, T. Nakajima, Y. Honda, O. Kitao, H. Nakai, 
 T. Vreven, K. Throssell, J. A. Montgomery, Jr., J. E. Peralta, 
 F. Ogliaro, M. J. Bearpark, J. J. Heyd, E. N. Brothers, K. N. Kudin, 
 V. N. Staroverov, T. A. Keith, R. Kobayashi, J. Normand, 
 K. Raghavachari, A. P. Rendell, J. C. Burant, S. S. Iyengar, 
 J. Tomasi, M. Cossi, J. M. Millam, M. Klene, C. Adamo, R. Cammi, 
 J. W. Ochterski, R. L. Martin, K. Morokuma, O. Farkas, 
 J. B. Foresman, and D. J. Fox, Gaussian, Inc., Wallingford CT, 2019.
 
 ******************************************
 Gaussian 16:  ES64L-G16RevC.01  3-Jul-2019
                25-May-2022 
 ******************************************
 %nprocshared=6
 Will use up to    6 processors via shared memory.
 -------------------------
 # pop=nbo m06/6-31+g(d,p)
 -------------------------
 1/38=1,172=1/1;
 2/12=2,17=6,18=5,40=1/2;
 3/5=1,6=6,7=111,11=2,25=1,30=1,74=-54/1,2,3;
 4//1;
 5/5=2,38=5/2;
 6/7=2,8=2,9=2,10=2,28=1,40=1/1,7;
 99/5=1,9=1/99;
 --------
 Isoxicam
 --------
 Symbolic Z-matrix:
 Charge = -1 Multiplicity = 2
 C                    -3.09801  -0.2755   -0.14686 
 C                    -4.44579  -0.59603  -0.09796 
 C                    -5.3742    0.42726   0.07468 
 C                    -4.94476   1.74787   0.19028 
 C                    -3.59025   2.05859   0.15176 
 C                    -2.64274   1.04434  -0.0068 
 H                    -4.75485  -1.63404  -0.19369 
 H                    -6.43455   0.19261   0.11528 
 H                    -5.67349   2.54416   0.31746 
 H                    -3.24944   3.08538   0.24898 
 C                    -1.20823   1.34956  -0.01668 
 C                    -0.25703   0.38307   0.18444 
 S                    -1.88616  -1.53954  -0.46446 
 O                    -1.46278  -1.44817  -1.84885 
 O                    -2.35009  -2.79288   0.1069 
 N                    -0.6161   -0.96912   0.48965 
 C                    -0.72589  -1.27093   1.92793 
 H                     0.2276   -1.00801   2.39609 
 H                    -1.5283   -0.69087   2.40732 
 H                    -0.90901  -2.33838   2.0628 
 O                    -0.91095   2.61952  -0.25469 
 H                     0.07946   2.69914  -0.21389 
 C                     1.16209   0.71321   0.0756 
 O                     1.55313   1.88488  -0.04772 
 N                     2.01507  -0.34907   0.12246 
 H                     1.60057  -1.27712   0.12621 
 C                     3.39782  -0.28399   0.04988 
 N                     4.06289  -1.41808   0.10304 
 C                     5.49005   0.28663  -0.08723 
 C                     4.24961   0.84527  -0.06991 
 C                     6.8542    0.8464   -0.19439 
 H                     7.45606   0.57681   0.68026 
 H                     7.36595   0.4578   -1.08152 
 H                     6.80912   1.93566  -0.26604 
 O                     5.39405  -1.05029   0.0137 
 H                     3.96834   1.88445  -0.13709 
 
                          Input orientation:                          
 ---------------------------------------------------------------------
 Center     Atomic      Atomic             Coordinates (Angstroms)
 Number     Number       Type             X           Y           Z
 ---------------------------------------------------------------------
      1          6           0       -3.098007   -0.275499   -0.146862
      2          6           0       -4.445792   -0.596026   -0.097961
      3          6           0       -5.374198    0.427261    0.074677
      4          6           0       -4.944761    1.747869    0.190277
      5          6           0       -3.590250    2.058590    0.151763
      6          6           0       -2.642744    1.044344   -0.006799
      7          1           0       -4.754851   -1.634040   -0.193689
      8          1           0       -6.434546    0.192607    0.115283
      9          1           0       -5.673486    2.544159    0.317463
     10          1           0       -3.249437    3.085383    0.248983
     11          6           0       -1.208229    1.349557   -0.016675
     12          6           0       -0.257033    0.383070    0.184438
     13         16           0       -1.886158   -1.539543   -0.464455
     14          8           0       -1.462781   -1.448168   -1.848846
     15          8           0       -2.350088   -2.792883    0.106895
     16          7           0       -0.616100   -0.969118    0.489651
     17          6           0       -0.725886   -1.270929    1.927933
     18          1           0        0.227601   -1.008014    2.396092
     19          1           0       -1.528297   -0.690869    2.407316
     20          1           0       -0.909014   -2.338376    2.062800
     21          8           0       -0.910954    2.619516   -0.254694
     22          1           0        0.079459    2.699140   -0.213890
     23          6           0        1.162088    0.713207    0.075600
     24          8           0        1.553129    1.884878   -0.047724
     25          7           0        2.015069   -0.349066    0.122458
     26          1           0        1.600571   -1.277117    0.126214
     27          6           0        3.397820   -0.283988    0.049877
     28          7           0        4.062891   -1.418077    0.103036
     29          6           0        5.490051    0.286626   -0.087228
     30          6           0        4.249606    0.845270   -0.069912
     31          6           0        6.854195    0.846400   -0.194389
     32          1           0        7.456061    0.576813    0.680255
     33          1           0        7.365954    0.457797   -1.081518
     34          1           0        6.809122    1.935664   -0.266041
     35          8           0        5.394054   -1.050293    0.013703
     36          1           0        3.968335    1.884452   -0.137094
 ---------------------------------------------------------------------
                    Distance matrix (angstroms):
                    1          2          3          4          5
     1  C    0.000000
     2  C    1.386237   0.000000
     3  C    2.392488   1.392429   0.000000
     4  C    2.760105   2.413689   1.393479   0.000000
     5  C    2.404049   2.800232   2.418604   1.390227   0.000000
     6  C    1.403163   2.439284   2.801477   2.415175   1.396998
     7  H    2.143119   1.087269   2.169003   3.408930   3.887306
     8  H    3.379399   2.150013   1.086761   2.154976   3.401947
     9  H    3.846968   3.397142   2.151691   1.086874   2.145485
    10  H    3.387499   3.886439   3.407434   2.160211   1.086236
    11  C    2.495800   3.778057   4.267818   3.763396   2.491008
    12  C    2.935065   4.310926   5.118533   4.882367   3.730787
    13  S    1.779677   2.752502   4.040471   4.537709   4.028674
    14  O    2.635501   3.562317   4.745140   5.147510   4.563542
    15  O    2.638370   3.043045   4.417647   5.230460   5.007675
    16  N    2.654453   3.892432   4.976100   5.119468   4.257552
    17  C    3.304938   4.289224   5.284431   5.470968   4.737622
    18  H    4.250043   5.313251   6.231303   6.262095   5.386748
    19  H    3.026607   3.846711   4.634908   4.747097   4.110802
    20  H    3.732259   4.495939   5.615982   6.040778   5.493123
    21  O    3.629868   4.781146   4.983474   4.150827   2.767395
    22  H    4.353075   5.599058   5.914988   5.129430   3.743096
    23  C    4.378977   5.761296   6.542538   6.194940   4.939694
    24  O    5.129339   6.491877   7.080077   6.503691   5.150177
    25  N    5.120692   6.469335   7.430090   7.269179   6.100596
    26  H    4.811907   6.088731   7.180178   7.210826   6.170269
    27  C    6.498811   7.851208   8.800840   8.587596   7.370968
    28  N    7.255783   8.550664   9.615858   9.548226   8.405959
    29  C    8.606642   9.974977  10.866365  10.540282   9.254666
    30  C    7.432998   8.814083   9.633963   9.242227   7.936285
    31  C   10.015350  11.392085  12.238532  11.839594  10.520250
    32  H   10.620683  11.984794  12.845413  12.465626  11.157775
    33  H   10.531182  11.899381  12.792544  12.443289  11.141002
    34  H   10.151584  11.537365  12.281069  11.764236  10.408487
    35  O    8.528844   9.850959  10.869321  10.712235   9.507993
    36  H    7.389091   8.772220   9.457863   8.920152   7.566107
                    6          7          8          9         10
     6  C    0.000000
     7  H    3.416089   0.000000
     8  H    3.888203   2.500696   0.000000
     9  H    3.397056   4.308424   2.479896   0.000000
    10  H    2.144607   4.973448   4.304759   2.484678   0.000000
    11  C    1.466658   4.638072   5.354469   4.634355   2.692619
    12  C    2.483037   4.943893   6.180835   5.833178   4.032511
    13  S    2.730997   2.882992   4.901456   5.624222   4.874163
    14  O    3.316333   3.689420   5.591815   6.193675   5.305291
    15  O    3.850050   2.686290   5.059251   6.290734   5.948364
    16  N    2.899617   4.247156   5.945088   6.160350   4.840595
    17  C    3.574636   4.567898   6.165747   6.451919   5.307037
    18  H    4.269068   5.650106   7.143373   7.194544   5.784096
    19  H    3.175044   4.250347   5.486823   5.658223   4.677692
    20  H    4.328031   4.514232   6.382022   7.041700   6.179375
    21  O    2.354085   5.733411   6.044571   4.797369   2.437053
    22  H    3.192433   6.492104   6.987369   5.779510   3.383044
    23  C    3.820103   6.371205   7.614555   7.080675   5.011869
    24  O    4.279430   7.224590   8.166597   7.265809   4.959222
    25  N    4.863489   6.898038   8.466963   8.217217   6.287008
    26  H    4.838656   6.373470   8.168434   8.218919   6.524497
    27  C    6.185151   8.267285   9.844127   9.505715   7.455088
    28  N    7.144307   8.825376  10.620294  10.513911   8.589097
    29  C    8.168412  10.423930  11.926687  11.396701   9.182850
    30  C    6.895513   9.340372  10.705670  10.074921   7.832972
    31  C    9.500854  11.871080  13.308418  12.652556  10.358234
    32  H   10.132941  12.440178  13.907400  13.281080  11.003936
    33  H   10.083308  12.331988  13.854835  13.279196  11.016395
    34  H    9.497338  12.102623  13.363323  12.511045  10.137145
    35  O    8.305302  10.167794  11.894154  11.640567   9.584837
    36  H    6.665518   9.406219  10.542579   9.675048   7.327177
                   11         12         13         14         15
    11  C    0.000000
    12  C    1.370882   0.000000
    13  S    3.001165   2.602220   0.000000
    14  O    3.353940   2.990235   1.450564   0.000000
    15  O    4.298712   3.804414   1.453456   2.533870   0.000000
    16  N    2.446066   1.431955   1.687824   2.532770   2.545454
    17  C    3.298652   2.448532   2.672434   3.852076   2.875857
    18  H    3.666223   2.657329   3.596280   4.590275   3.882095
    19  H    3.184574   2.776805   3.015855   4.323507   3.222691
    20  H    4.244360   3.370399   2.824883   4.049704   2.471606
    21  O    1.325829   2.371105   4.277008   4.403622   5.612122
    22  H    1.875742   2.374041   4.678981   4.717176   6.013977
    23  C    2.455984   1.461075   3.828622   3.907041   4.962764
    24  O    2.812940   2.363475   4.871244   4.842412   6.094297
    25  N    3.646139   2.387951   4.120834   4.146023   5.002707
    26  H    3.848271   2.492048   3.546130   3.648869   4.231504
    27  C    4.887595   3.717664   5.455399   5.346579   6.271862
    28  N    5.954732   4.681079   5.977289   5.860358   6.558689
    29  C    6.782459   5.754310   7.608262   7.379342   8.425487
    30  C    5.481341   4.537413   6.594740   6.407482   7.538128
    31  C    8.080064   7.136368   9.064184   8.784894   9.902221
    32  H    8.726555   7.731442   9.647092   9.489080  10.384804
    33  H    8.685951   7.727753   9.485342   9.064660  10.314103
    34  H    8.042613   7.248726   9.366127   9.076341  10.314522
    35  O    7.024980   5.832535   7.312283   7.116430   7.938327
    36  H    5.205519   4.495694   6.790140   6.597990   7.865079
                   16         17         18         19         20
    16  N    0.000000
    17  C    1.473702   0.000000
    18  H    2.085153   1.094274   0.000000
    19  H    2.141720   1.100064   1.784344   0.000000
    20  H    2.106054   1.091406   1.781247   1.793455   0.000000
    21  O    3.676858   4.464714   4.634862   4.292558   5.472794
    22  H    3.799327   4.582296   4.536182   4.576872   5.615778
    23  C    2.482662   3.306415   3.036536   3.827075   4.189342
    24  O    3.624861   4.365346   4.012242   4.707110   5.324691
    25  N    2.728066   3.409165   2.966255   4.229994   4.033924
    26  H    2.267285   2.942555   2.666423   3.916239   3.342851
    27  C    4.095651   4.637467   4.009891   5.476285   5.178918
    28  N    4.716354   5.126820   4.487283   6.090970   5.422865
    29  C    6.260572   6.717494   5.961237   7.512353   7.243017
    30  C    5.223046   5.764131   5.068763   6.471518   6.426151
    31  C    7.718117   8.151378   7.352632   8.910569   8.689368
    32  H    8.221071   8.480278   7.596473   9.236257   8.965726
    33  H    8.259409   8.804724   8.074556   9.622842   9.283341
    34  H    8.008917   8.477742   7.685611   9.141010   9.124721
    35  O    6.029516   6.416122   5.689446   7.333315   6.751787
    36  H    5.436241   6.021335   5.364372   6.581737   6.816182
                   21         22         23         24         25
    21  O    0.000000
    22  H    0.994446   0.000000
    23  C    2.835597   2.280311   0.000000
    24  O    2.579580   1.691844   1.241344   0.000000
    25  N    4.185252   3.626469   1.363157   2.287544   0.000000
    26  H    4.651516   4.270840   2.038681   3.167131   1.016416
    27  C    5.204674   4.469916   2.448174   2.848928   1.386183
    28  N    6.416328   5.737565   3.599692   4.151042   2.310138
    29  C    6.814931   5.925434   4.351982   4.249156   3.538866
    30  C    5.460171   4.565927   3.093765   2.890029   2.540984
    31  C    7.965244   7.023537   5.700063   5.403818   4.994664
    32  H    8.663354   7.727744   6.324421   6.089794   5.547322
    33  H    8.594409   7.672640   6.316020   6.074062   5.543695
    34  H    7.750313   6.773033   5.787928   5.260770   5.324835
    35  O    7.300182   6.508069   4.585117   4.834429   3.452693
    36  H    4.935748   3.974037   3.048291   2.416859   2.978459
                   26         27         28         29         30
    26  H    0.000000
    27  C    2.054808   0.000000
    28  N    2.466460   1.315790   0.000000
    29  C    4.197488   2.172977   2.231367   0.000000
    30  C    3.400056   1.419547   2.277611   1.360546   0.000000
    31  C    5.675621   3.644718   3.606618   1.478418   2.607562
    32  H    6.166910   4.196150   3.978237   2.130360   3.303963
    33  H    6.140699   4.192420   3.978982   2.130006   3.299259
    34  H    6.132278   4.082112   4.350354   2.119257   2.789005
    35  O    3.801923   2.138570   1.383922   1.344156   2.215832
    36  H    3.958681   2.250017   3.312597   2.207069   1.078669
                   31         32         33         34         35
    31  C    0.000000
    32  H    1.095409   0.000000
    33  H    1.095403   1.768086   0.000000
    34  H    1.092548   1.777775   1.777401   0.000000
    35  O    2.402657   2.709915   2.713344   3.316114   0.000000
    36  H    3.067413   3.813425   3.804089   2.844173   3.266212
                   36
    36  H    0.000000
 Stoichiometry    C14H13N3O5S(1-,2)
 Framework group  C1[X(C14H13N3O5S)]
 Deg. of freedom   102
 Full point group                 C1      NOp   1
 Largest Abelian subgroup         C1      NOp   1
 Largest concise Abelian subgroup C1      NOp   1
                         Standard orientation:                         
 ---------------------------------------------------------------------
 Center     Atomic      Atomic             Coordinates (Angstroms)
 Number     Number       Type             X           Y           Z
 ---------------------------------------------------------------------
      1          6           0       -3.098007   -0.275499   -0.146862
      2          6           0       -4.445792   -0.596026   -0.097961
      3          6           0       -5.374198    0.427261    0.074677
      4          6           0       -4.944761    1.747869    0.190277
      5          6           0       -3.590250    2.058590    0.151763
      6          6           0       -2.642744    1.044344   -0.006799
      7          1           0       -4.754851   -1.634040   -0.193689
      8          1           0       -6.434546    0.192607    0.115283
      9          1           0       -5.673486    2.544159    0.317463
     10          1           0       -3.249437    3.085383    0.248983
     11          6           0       -1.208229    1.349557   -0.016675
     12          6           0       -0.257033    0.383070    0.184438
     13         16           0       -1.886158   -1.539543   -0.464455
     14          8           0       -1.462781   -1.448168   -1.848846
     15          8           0       -2.350088   -2.792883    0.106895
     16          7           0       -0.616100   -0.969118    0.489651
     17          6           0       -0.725886   -1.270929    1.927933
     18          1           0        0.227601   -1.008014    2.396092
     19          1           0       -1.528297   -0.690869    2.407316
     20          1           0       -0.909014   -2.338376    2.062800
     21          8           0       -0.910954    2.619516   -0.254694
     22          1           0        0.079459    2.699140   -0.213890
     23          6           0        1.162088    0.713207    0.075600
     24          8           0        1.553129    1.884878   -0.047724
     25          7           0        2.015069   -0.349066    0.122458
     26          1           0        1.600571   -1.277117    0.126214
     27          6           0        3.397820   -0.283988    0.049877
     28          7           0        4.062891   -1.418077    0.103036
     29          6           0        5.490051    0.286626   -0.087228
     30          6           0        4.249606    0.845270   -0.069912
     31          6           0        6.854195    0.846400   -0.194389
     32          1           0        7.456061    0.576813    0.680255
     33          1           0        7.365954    0.457797   -1.081518
     34          1           0        6.809122    1.935664   -0.266041
     35          8           0        5.394054   -1.050293    0.013703
     36          1           0        3.968335    1.884452   -0.137094
 ---------------------------------------------------------------------
 Rotational constants (GHZ):           0.6229296           0.1258089           0.1106776
 Standard basis: 6-31+G(d,p) (6D, 7F)
 There are   506 symmetry adapted cartesian basis functions of A   symmetry.
 There are   506 symmetry adapted basis functions of A   symmetry.
   506 basis functions,   851 primitive gaussians,   506 cartesian basis functions
    88 alpha electrons       87 beta electrons
       nuclear repulsion energy      2131.5767144751 Hartrees.
 NAtoms=   36 NActive=   36 NUniq=   36 SFac= 1.00D+00 NAtFMM=   60 NAOKFM=F Big=F
 Integral buffers will be    131072 words long.
 Raffenetti 2 integral format.
 Two-electron integral symmetry is turned on.
 One-electron integrals computed using PRISM.
 NBasis=   506 RedAO= T EigKep=  1.53D-06  NBF=   506
 NBsUse=   503 1.00D-06 EigRej=  7.08D-07 NBFU=   503
 ExpMin= 4.05D-02 ExpMax= 2.19D+04 ExpMxC= 3.30D+03 IAcc=3 IRadAn=         5 AccDes= 0.00D+00
 Harris functional with IExCor= 1009 and IRadAn=       5 diagonalized for initial guess.
 HarFok:  IExCor= 1009 AccDes= 0.00D+00 IRadAn=         5 IDoV= 1 UseB2=F ITyADJ=14
 ICtDFT=  3500011 ScaDFX=  1.000000  1.000000  1.000000  1.000000
 FoFCou: FMM=F IPFlag=           0 FMFlag=      100000 FMFlg1=           0
         NFxFlg=           0 DoJE=T BraDBF=F KetDBF=T FulRan=T
         wScrn=  0.000000 ICntrl=       500 IOpCl=  0 I1Cent=   200000004 NGrid=           0
         NMat0=    1 NMatS0=      1 NMatT0=    0 NMatD0=    1 NMtDS0=    0 NMtDT0=    0
 Petite list used in FoFCou.
 Initial guess <Sx>= 0.0000 <Sy>= 0.0000 <Sz>= 0.5000 <S**2>= 0.7500 S= 0.5000
 Requested convergence on RMS density matrix=1.00D-08 within 128 cycles.
 Requested convergence on MAX density matrix=1.00D-06.
 Requested convergence on             energy=1.00D-06.
 No special actions if energy rises.
 Restarting incremental Fock formation.
 SCF Done:  E(UM06) =  -1479.21087453     A.U. after   25 cycles
            NFock= 25  Conv=0.43D-08     -V/T= 2.0082
 <Sx>= 0.0000 <Sy>= 0.0000 <Sz>= 0.5000 <S**2>= 0.7598 S= 0.5049
 <L.S>=  0.00000000000    
 Annihilation of the first spin contaminant:
 S**2 before annihilation     0.7598,   after     0.7501

 **********************************************************************

            Population analysis using the SCF Density.

 **********************************************************************

 Orbital symmetries:
 Alpha Orbitals:
       Occupied  (A) (A) (A) (A) (A) (A) (A) (A) (A) (A) (A) (A)
                 (A) (A) (A) (A) (A) (A) (A) (A) (A) (A) (A) (A)
                 (A) (A) (A) (A) (A) (A) (A) (A) (A) (A) (A) (A)
                 (A) (A) (A) (A) (A) (A) (A) (A) (A) (A) (A) (A)
                 (A) (A) (A) (A) (A) (A) (A) (A) (A) (A) (A) (A)
                 (A) (A) (A) (A) (A) (A) (A) (A) (A) (A) (A) (A)
                 (A) (A) (A) (A) (A) (A) (A) (A) (A) (A) (A) (A)
                 (A) (A) (A) (A)
       Virtual   (A) (A) (A) (A) (A) (A) (A) (A) (A) (A) (A) (A)
                 (A) (A) (A) (A) (A) (A) (A) (A) (A) (A) (A) (A)
                 (A) (A) (A) (A) (A) (A) (A) (A) (A) (A) (A) (A)
                 (A) (A) (A) (A) (A) (A) (A) (A) (A) (A) (A) (A)
                 (A) (A) (A) (A) (A) (A) (A) (A) (A) (A) (A) (A)
                 (A) (A) (A) (A) (A) (A) (A) (A) (A) (A) (A) (A)
                 (A) (A) (A) (A) (A) (A) (A) (A) (A) (A) (A) (A)
                 (A) (A) (A) (A) (A) (A) (A) (A) (A) (A) (A) (A)
                 (A) (A) (A) (A) (A) (A) (A) (A) (A) (A) (A) (A)
                 (A) (A) (A) (A) (A) (A) (A) (A) (A) (A) (A) (A)
                 (A) (A) (A) (A) (A) (A) (A) (A) (A) (A) (A) (A)
                 (A) (A) (A) (A) (A) (A) (A) (A) (A) (A) (A) (A)
                 (A) (A) (A) (A) (A) (A) (A) (A) (A) (A) (A) (A)
                 (A) (A) (A) (A) (A) (A) (A) (A) (A) (A) (A) (A)
                 (A) (A) (A) (A) (A) (A) (A) (A) (A) (A) (A) (A)
                 (A) (A) (A) (A) (A) (A) (A) (A) (A) (A) (A) (A)
                 (A) (A) (A) (A) (A) (A) (A) (A) (A) (A) (A) (A)
                 (A) (A) (A) (A) (A) (A) (A) (A) (A) (A) (A) (A)
                 (A) (A) (A) (A) (A) (A) (A) (A) (A) (A) (A) (A)
                 (A) (A) (A) (A) (A) (A) (A) (A) (A) (A) (A) (A)
                 (A) (A) (A) (A) (A) (A) (A) (A) (A) (A) (A) (A)
                 (A) (A) (A) (A) (A) (A) (A) (A) (A) (A) (A) (A)
                 (A) (A) (A) (A) (A) (A) (A) (A) (A) (A) (A) (A)
                 (A) (A) (A) (A) (A) (A) (A) (A) (A) (A) (A) (A)
                 (A) (A) (A) (A) (A) (A) (A) (A) (A) (A) (A) (A)
                 (A) (A) (A) (A) (A) (A) (A) (A) (A) (A) (A) (A)
                 (A) (A) (A) (A) (A) (A) (A) (A) (A) (A) (A) (A)
                 (A) (A) (A) (A) (A) (A) (A) (A) (A) (A) (A) (A)
                 (A) (A) (A) (A) (A) (A) (A) (A) (A) (A) (A) (A)
                 (A) (A) (A) (A) (A) (A) (A) (A) (A) (A) (A) (A)
                 (A) (A) (A) (A) (A) (A) (A) (A) (A) (A) (A) (A)
                 (A) (A) (A) (A) (A) (A) (A) (A) (A) (A) (A) (A)
                 (A) (A) (A) (A) (A) (A) (A) (A) (A) (A) (A) (A)
                 (A) (A) (A) (A) (A) (A) (A) (A) (A) (A) (A) (A)
                 (A) (A) (A) (A) (A) (A) (A)
 Beta  Orbitals:
       Occupied  (A) (A) (A) (A) (A) (A) (A) (A) (A) (A) (A) (A)
                 (A) (A) (A) (A) (A) (A) (A) (A) (A) (A) (A) (A)
                 (A) (A) (A) (A) (A) (A) (A) (A) (A) (A) (A) (A)
                 (A) (A) (A) (A) (A) (A) (A) (A) (A) (A) (A) (A)
                 (A) (A) (A) (A) (A) (A) (A) (A) (A) (A) (A) (A)
                 (A) (A) (A) (A) (A) (A) (A) (A) (A) (A) (A) (A)
                 (A) (A) (A) (A) (A) (A) (A) (A) (A) (A) (A) (A)
                 (A) (A) (A)
       Virtual   (A) (A) (A) (A) (A) (A) (A) (A) (A) (A) (A) (A)
                 (A) (A) (A) (A) (A) (A) (A) (A) (A) (A) (A) (A)
                 (A) (A) (A) (A) (A) (A) (A) (A) (A) (A) (A) (A)
                 (A) (A) (A) (A) (A) (A) (A) (A) (A) (A) (A) (A)
                 (A) (A) (A) (A) (A) (A) (A) (A) (A) (A) (A) (A)
                 (A) (A) (A) (A) (A) (A) (A) (A) (A) (A) (A) (A)
                 (A) (A) (A) (A) (A) (A) (A) (A) (A) (A) (A) (A)
                 (A) (A) (A) (A) (A) (A) (A) (A) (A) (A) (A) (A)
                 (A) (A) (A) (A) (A) (A) (A) (A) (A) (A) (A) (A)
                 (A) (A) (A) (A) (A) (A) (A) (A) (A) (A) (A) (A)
                 (A) (A) (A) (A) (A) (A) (A) (A) (A) (A) (A) (A)
                 (A) (A) (A) (A) (A) (A) (A) (A) (A) (A) (A) (A)
                 (A) (A) (A) (A) (A) (A) (A) (A) (A) (A) (A) (A)
                 (A) (A) (A) (A) (A) (A) (A) (A) (A) (A) (A) (A)
                 (A) (A) (A) (A) (A) (A) (A) (A) (A) (A) (A) (A)
                 (A) (A) (A) (A) (A) (A) (A) (A) (A) (A) (A) (A)
                 (A) (A) (A) (A) (A) (A) (A) (A) (A) (A) (A) (A)
                 (A) (A) (A) (A) (A) (A) (A) (A) (A) (A) (A) (A)
                 (A) (A) (A) (A) (A) (A) (A) (A) (A) (A) (A) (A)
                 (A) (A) (A) (A) (A) (A) (A) (A) (A) (A) (A) (A)
                 (A) (A) (A) (A) (A) (A) (A) (A) (A) (A) (A) (A)
                 (A) (A) (A) (A) (A) (A) (A) (A) (A) (A) (A) (A)
                 (A) (A) (A) (A) (A) (A) (A) (A) (A) (A) (A) (A)
                 (A) (A) (A) (A) (A) (A) (A) (A) (A) (A) (A) (A)
                 (A) (A) (A) (A) (A) (A) (A) (A) (A) (A) (A) (A)
                 (A) (A) (A) (A) (A) (A) (A) (A) (A) (A) (A) (A)
                 (A) (A) (A) (A) (A) (A) (A) (A) (A) (A) (A) (A)
                 (A) (A) (A) (A) (A) (A) (A) (A) (A) (A) (A) (A)
                 (A) (A) (A) (A) (A) (A) (A) (A) (A) (A) (A) (A)
                 (A) (A) (A) (A) (A) (A) (A) (A) (A) (A) (A) (A)
                 (A) (A) (A) (A) (A) (A) (A) (A) (A) (A) (A) (A)
                 (A) (A) (A) (A) (A) (A) (A) (A) (A) (A) (A) (A)
                 (A) (A) (A) (A) (A) (A) (A) (A) (A) (A) (A) (A)
                 (A) (A) (A) (A) (A) (A) (A) (A) (A) (A) (A) (A)
                 (A) (A) (A) (A) (A) (A) (A) (A)
 The electronic state is 2-A.
 Alpha  occ. eigenvalues --  -89.17010 -19.23117 -19.13326 -19.12264 -19.11711
 Alpha  occ. eigenvalues --  -19.09165 -14.35374 -14.34148 -14.33467 -10.24602
 Alpha  occ. eigenvalues --  -10.24216 -10.23671 -10.20125 -10.19478 -10.18434
 Alpha  occ. eigenvalues --  -10.17009 -10.16065 -10.15861 -10.15173 -10.15160
 Alpha  occ. eigenvalues --  -10.14740 -10.14457 -10.14199  -8.13656  -6.05480
 Alpha  occ. eigenvalues --   -6.05407  -6.05231  -1.08016  -1.02946  -0.97368
 Alpha  occ. eigenvalues --   -0.94477  -0.92308  -0.86581  -0.84568  -0.77322
 Alpha  occ. eigenvalues --   -0.76253  -0.73455  -0.67797  -0.66337  -0.65697
 Alpha  occ. eigenvalues --   -0.64267  -0.60891  -0.57364  -0.54079  -0.53898
 Alpha  occ. eigenvalues --   -0.51248  -0.49736  -0.48664  -0.46172  -0.44246
 Alpha  occ. eigenvalues --   -0.43466  -0.42566  -0.41210  -0.40129  -0.39381
 Alpha  occ. eigenvalues --   -0.38497  -0.37791  -0.35780  -0.35619  -0.35259
 Alpha  occ. eigenvalues --   -0.34647  -0.34144  -0.33814  -0.33690  -0.33198
 Alpha  occ. eigenvalues --   -0.33000  -0.31765  -0.30752  -0.30513  -0.30195
 Alpha  occ. eigenvalues --   -0.27844  -0.27029  -0.26463  -0.24952  -0.24875
 Alpha  occ. eigenvalues --   -0.24212  -0.23098  -0.22608  -0.21856  -0.20486
 Alpha  occ. eigenvalues --   -0.19041  -0.18431  -0.16939  -0.16104  -0.15989
 Alpha  occ. eigenvalues --   -0.15003  -0.11813   0.00472
 Alpha virt. eigenvalues --    0.04334   0.06890   0.07222   0.07440   0.07788
 Alpha virt. eigenvalues --    0.07829   0.08161   0.08831   0.09269   0.09473
 Alpha virt. eigenvalues --    0.09608   0.10191   0.10894   0.11293   0.11657
 Alpha virt. eigenvalues --    0.12132   0.12358   0.12801   0.13106   0.13353
 Alpha virt. eigenvalues --    0.14001   0.14359   0.15185   0.15514   0.15900
 Alpha virt. eigenvalues --    0.16223   0.16787   0.17321   0.17734   0.18600
 Alpha virt. eigenvalues --    0.18692   0.19192   0.19276   0.19533   0.19942
 Alpha virt. eigenvalues --    0.20495   0.20615   0.20875   0.21164   0.21573
 Alpha virt. eigenvalues --    0.22092   0.22268   0.22789   0.23171   0.23430
 Alpha virt. eigenvalues --    0.23755   0.24052   0.24499   0.25016   0.25171
 Alpha virt. eigenvalues --    0.25752   0.26091   0.26497   0.26757   0.27000
 Alpha virt. eigenvalues --    0.27341   0.27912   0.27980   0.28349   0.28709
 Alpha virt. eigenvalues --    0.29018   0.29345   0.29596   0.29917   0.30231
 Alpha virt. eigenvalues --    0.30366   0.30980   0.31261   0.31513   0.31827
 Alpha virt. eigenvalues --    0.31993   0.32610   0.33636   0.33806   0.33934
 Alpha virt. eigenvalues --    0.34945   0.35113   0.35391   0.35455   0.35685
 Alpha virt. eigenvalues --    0.36129   0.36488   0.37121   0.37228   0.37570
 Alpha virt. eigenvalues --    0.37937   0.38147   0.38536   0.38634   0.39258
 Alpha virt. eigenvalues --    0.39817   0.39974   0.40355   0.40559   0.40736
 Alpha virt. eigenvalues --    0.40868   0.41188   0.42199   0.42400   0.42847
 Alpha virt. eigenvalues --    0.43212   0.43788   0.44277   0.44798   0.45274
 Alpha virt. eigenvalues --    0.45613   0.46157   0.46354   0.47201   0.47476
 Alpha virt. eigenvalues --    0.48273   0.48613   0.48782   0.49144   0.50290
 Alpha virt. eigenvalues --    0.50672   0.51742   0.52280   0.53013   0.53813
 Alpha virt. eigenvalues --    0.54849   0.56084   0.58017   0.59628   0.60303
 Alpha virt. eigenvalues --    0.60758   0.62130   0.64316   0.65375   0.66315
 Alpha virt. eigenvalues --    0.66667   0.67603   0.70887   0.71096   0.73073
 Alpha virt. eigenvalues --    0.73760   0.74981   0.76233   0.77231   0.78144
 Alpha virt. eigenvalues --    0.78745   0.79449   0.79602   0.80123   0.80504
 Alpha virt. eigenvalues --    0.81283   0.81781   0.83425   0.84063   0.84723
 Alpha virt. eigenvalues --    0.85003   0.85270   0.86380   0.86743   0.87694
 Alpha virt. eigenvalues --    0.88787   0.89449   0.90910   0.91787   0.93153
 Alpha virt. eigenvalues --    0.93811   0.95195   0.96237   0.96555   0.97661
 Alpha virt. eigenvalues --    0.98371   0.98640   0.99677   1.00652   1.01226
 Alpha virt. eigenvalues --    1.01755   1.02385   1.03121   1.04357   1.05250
 Alpha virt. eigenvalues --    1.05950   1.06570   1.07285   1.07935   1.09195
 Alpha virt. eigenvalues --    1.10191   1.10633   1.11336   1.11494   1.12611
 Alpha virt. eigenvalues --    1.13553   1.15406   1.16644   1.17584   1.18337
 Alpha virt. eigenvalues --    1.18797   1.21011   1.22478   1.22657   1.24068
 Alpha virt. eigenvalues --    1.24857   1.25614   1.26382   1.26604   1.27761
 Alpha virt. eigenvalues --    1.28522   1.29709   1.31180   1.31702   1.32972
 Alpha virt. eigenvalues --    1.34122   1.34520   1.35719   1.37092   1.37616
 Alpha virt. eigenvalues --    1.37817   1.38341   1.39691   1.40919   1.41694
 Alpha virt. eigenvalues --    1.42731   1.43199   1.43863   1.44580   1.44964
 Alpha virt. eigenvalues --    1.45108   1.45943   1.46567   1.47433   1.48187
 Alpha virt. eigenvalues --    1.48873   1.49351   1.50316   1.50979   1.51862
 Alpha virt. eigenvalues --    1.52413   1.53327   1.53661   1.54503   1.55468
 Alpha virt. eigenvalues --    1.56020   1.58513   1.59009   1.59418   1.61571
 Alpha virt. eigenvalues --    1.62659   1.64272   1.64897   1.65255   1.65520
 Alpha virt. eigenvalues --    1.68038   1.69496   1.70642   1.71876   1.75601
 Alpha virt. eigenvalues --    1.76370   1.76993   1.77298   1.81852   1.82276
 Alpha virt. eigenvalues --    1.83193   1.85618   1.87650   1.88706   1.90917
 Alpha virt. eigenvalues --    1.91607   1.93154   1.93873   1.94347   1.95195
 Alpha virt. eigenvalues --    1.95680   1.97168   1.97410   1.98031   1.99352
 Alpha virt. eigenvalues --    1.99793   2.01064   2.01081   2.01955   2.02498
 Alpha virt. eigenvalues --    2.02694   2.03843   2.04523   2.05975   2.06023
 Alpha virt. eigenvalues --    2.06850   2.07320   2.07930   2.08900   2.09750
 Alpha virt. eigenvalues --    2.11515   2.11589   2.12384   2.12790   2.14297
 Alpha virt. eigenvalues --    2.14839   2.15879   2.16573   2.17081   2.17762
 Alpha virt. eigenvalues --    2.19810   2.20951   2.21640   2.22010   2.22618
 Alpha virt. eigenvalues --    2.24167   2.24597   2.26540   2.27142   2.29737
 Alpha virt. eigenvalues --    2.31729   2.33003   2.35695   2.36693   2.37823
 Alpha virt. eigenvalues --    2.39357   2.39926   2.40703   2.42072   2.43652
 Alpha virt. eigenvalues --    2.44934   2.45988   2.47363   2.47779   2.48562
 Alpha virt. eigenvalues --    2.50220   2.50548   2.52086   2.52323   2.56409
 Alpha virt. eigenvalues --    2.57321   2.58295   2.58793   2.59579   2.60324
 Alpha virt. eigenvalues --    2.62332   2.63539   2.64522   2.65224   2.67269
 Alpha virt. eigenvalues --    2.67560   2.67928   2.69818   2.70451   2.71372
 Alpha virt. eigenvalues --    2.72473   2.73427   2.73862   2.74365   2.75448
 Alpha virt. eigenvalues --    2.76886   2.78055   2.80536   2.82282   2.83517
 Alpha virt. eigenvalues --    2.85755   2.87271   2.87551   2.89420   2.89947
 Alpha virt. eigenvalues --    2.92231   2.94270   2.94785   2.96749   2.99245
 Alpha virt. eigenvalues --    3.00891   3.03258   3.05695   3.07026   3.08532
 Alpha virt. eigenvalues --    3.09146   3.10877   3.12091   3.13526   3.15629
 Alpha virt. eigenvalues --    3.19852   3.23960   3.27185   3.30265   3.31219
 Alpha virt. eigenvalues --    3.32186   3.35258   3.37298   3.38201   3.38522
 Alpha virt. eigenvalues --    3.43655   3.44937   3.47366   3.50638   3.51613
 Alpha virt. eigenvalues --    3.53175   3.54760   3.58771   3.66319   3.75877
 Alpha virt. eigenvalues --    3.79435   3.90713   4.10853   4.27731   4.38387
 Alpha virt. eigenvalues --    4.40577   4.41969   4.43509   4.47951   4.48924
 Alpha virt. eigenvalues --    4.49643   4.52855   4.56365   4.58679   4.60534
 Alpha virt. eigenvalues --    4.62774   4.64660   4.67755   4.72393   4.74684
 Alpha virt. eigenvalues --    4.82180   4.85616   4.93664   5.00649   5.03863
  Beta  occ. eigenvalues --  -89.17008 -19.23096 -19.13213 -19.12247 -19.11693
  Beta  occ. eigenvalues --  -19.09048 -14.35319 -14.34135 -14.33463 -10.24602
  Beta  occ. eigenvalues --  -10.24096 -10.23669 -10.20125 -10.19202 -10.18424
  Beta  occ. eigenvalues --  -10.17010 -10.15963 -10.15876 -10.15193 -10.15131
  Beta  occ. eigenvalues --  -10.14647 -10.14366 -10.13980  -8.13654  -6.05474
  Beta  occ. eigenvalues --   -6.05400  -6.05232  -1.07950  -1.02890  -0.96962
  Beta  occ. eigenvalues --   -0.94088  -0.92254  -0.86427  -0.84481  -0.77210
  Beta  occ. eigenvalues --   -0.75909  -0.73431  -0.67299  -0.66039  -0.65675
  Beta  occ. eigenvalues --   -0.63978  -0.60820  -0.56963  -0.53857  -0.53725
  Beta  occ. eigenvalues --   -0.51091  -0.49523  -0.48506  -0.45999  -0.44021
  Beta  occ. eigenvalues --   -0.43385  -0.42395  -0.41115  -0.40026  -0.39253
  Beta  occ. eigenvalues --   -0.38351  -0.37697  -0.35649  -0.35463  -0.35199
  Beta  occ. eigenvalues --   -0.34492  -0.34042  -0.33552  -0.33322  -0.32932
  Beta  occ. eigenvalues --   -0.32851  -0.31624  -0.30690  -0.30303  -0.29184
  Beta  occ. eigenvalues --   -0.27689  -0.26470  -0.26052  -0.24791  -0.24318
  Beta  occ. eigenvalues --   -0.24068  -0.22971  -0.22491  -0.21625  -0.20384
  Beta  occ. eigenvalues --   -0.18852  -0.18333  -0.15831  -0.15441  -0.15132
  Beta  occ. eigenvalues --   -0.14466  -0.10520
  Beta virt. eigenvalues --    0.04343   0.06983   0.07110   0.07330   0.07497
  Beta virt. eigenvalues --    0.07980   0.08096   0.08380   0.09251   0.09534
  Beta virt. eigenvalues --    0.09653   0.09884   0.10359   0.11048   0.11498
  Beta virt. eigenvalues --    0.11757   0.12284   0.12905   0.13214   0.13471
  Beta virt. eigenvalues --    0.13602   0.14239   0.14518   0.15328   0.15670
  Beta virt. eigenvalues --    0.16030   0.16299   0.17210   0.17444   0.18038
  Beta virt. eigenvalues --    0.18786   0.18905   0.19403   0.19480   0.19659
  Beta virt. eigenvalues --    0.20131   0.20741   0.20755   0.21181   0.21314
  Beta virt. eigenvalues --    0.21811   0.22561   0.22644   0.23004   0.23259
  Beta virt. eigenvalues --    0.23679   0.23967   0.24245   0.24741   0.25232
  Beta virt. eigenvalues --    0.25252   0.25872   0.26235   0.26546   0.26879
  Beta virt. eigenvalues --    0.27185   0.27611   0.27978   0.28155   0.28492
  Beta virt. eigenvalues --    0.28775   0.29329   0.29472   0.29767   0.30033
  Beta virt. eigenvalues --    0.30431   0.30560   0.31167   0.31240   0.31438
  Beta virt. eigenvalues --    0.32032   0.32266   0.32792   0.33646   0.33926
  Beta virt. eigenvalues --    0.34003   0.35016   0.35128   0.35469   0.35612
  Beta virt. eigenvalues --    0.35724   0.36217   0.36549   0.37205   0.37380
  Beta virt. eigenvalues --    0.37697   0.37988   0.38226   0.38558   0.38733
  Beta virt. eigenvalues --    0.39346   0.39835   0.40064   0.40367   0.40694
  Beta virt. eigenvalues --    0.40949   0.41040   0.41232   0.42285   0.42513
  Beta virt. eigenvalues --    0.43061   0.43375   0.43842   0.44317   0.44894
  Beta virt. eigenvalues --    0.45323   0.45817   0.46255   0.46461   0.47243
  Beta virt. eigenvalues --    0.47584   0.48393   0.48762   0.48834   0.49246
  Beta virt. eigenvalues --    0.50446   0.50821   0.51748   0.52731   0.53282
  Beta virt. eigenvalues --    0.53960   0.54897   0.56223   0.58079   0.59767
  Beta virt. eigenvalues --    0.60480   0.60810   0.62270   0.64597   0.65508
  Beta virt. eigenvalues --    0.66434   0.67129   0.67805   0.70949   0.71212
  Beta virt. eigenvalues --    0.73239   0.73871   0.75263   0.76452   0.77427
  Beta virt. eigenvalues --    0.78205   0.78869   0.79535   0.79788   0.80335
  Beta virt. eigenvalues --    0.80568   0.81514   0.81827   0.83518   0.84236
  Beta virt. eigenvalues --    0.84859   0.85128   0.85466   0.86515   0.86894
  Beta virt. eigenvalues --    0.87884   0.88909   0.89548   0.91054   0.91974
  Beta virt. eigenvalues --    0.93281   0.93871   0.95248   0.96300   0.96570
  Beta virt. eigenvalues --    0.97627   0.98436   0.98627   0.99765   1.00698
  Beta virt. eigenvalues --    1.01366   1.01901   1.02249   1.03152   1.04453
  Beta virt. eigenvalues --    1.05358   1.06070   1.06601   1.07356   1.07947
  Beta virt. eigenvalues --    1.09244   1.10164   1.10638   1.11384   1.11597
  Beta virt. eigenvalues --    1.12672   1.13637   1.15473   1.16660   1.17660
  Beta virt. eigenvalues --    1.18428   1.18813   1.21075   1.22536   1.22743
  Beta virt. eigenvalues --    1.24157   1.24909   1.25749   1.26465   1.26678
  Beta virt. eigenvalues --    1.27851   1.28617   1.29853   1.31218   1.31901
  Beta virt. eigenvalues --    1.33064   1.34169   1.34579   1.35926   1.37328
  Beta virt. eigenvalues --    1.37968   1.38161   1.38633   1.39813   1.41111
  Beta virt. eigenvalues --    1.41904   1.42919   1.43257   1.43946   1.44687
  Beta virt. eigenvalues --    1.45084   1.45169   1.45979   1.46652   1.47494
  Beta virt. eigenvalues --    1.48243   1.49010   1.49444   1.50379   1.51113
  Beta virt. eigenvalues --    1.51966   1.52465   1.53518   1.53754   1.54709
  Beta virt. eigenvalues --    1.55682   1.56022   1.58680   1.59122   1.59559
  Beta virt. eigenvalues --    1.61702   1.62771   1.64432   1.65080   1.65590
  Beta virt. eigenvalues --    1.65694   1.68226   1.69639   1.70677   1.72089
  Beta virt. eigenvalues --    1.75703   1.76386   1.77169   1.77350   1.81992
  Beta virt. eigenvalues --    1.82473   1.83306   1.86006   1.88021   1.89121
  Beta virt. eigenvalues --    1.91164   1.91800   1.93395   1.94033   1.94465
  Beta virt. eigenvalues --    1.95333   1.96039   1.97195   1.97502   1.98382
  Beta virt. eigenvalues --    1.99476   1.99752   2.01163   2.01257   2.02140
  Beta virt. eigenvalues --    2.02580   2.02872   2.03992   2.04661   2.06048
  Beta virt. eigenvalues --    2.06282   2.06854   2.07378   2.08113   2.08853
  Beta virt. eigenvalues --    2.10099   2.11534   2.11680   2.12501   2.13011
  Beta virt. eigenvalues --    2.14611   2.14850   2.16167   2.16654   2.17210
  Beta virt. eigenvalues --    2.17915   2.19987   2.21245   2.21677   2.22095
  Beta virt. eigenvalues --    2.22753   2.24254   2.24751   2.26765   2.27416
  Beta virt. eigenvalues --    2.30100   2.32007   2.33297   2.36053   2.36788
  Beta virt. eigenvalues --    2.38198   2.39661   2.40059   2.40808   2.42620
  Beta virt. eigenvalues --    2.44006   2.45127   2.46329   2.47539   2.47889
  Beta virt. eigenvalues --    2.48675   2.50495   2.50860   2.52345   2.52519
  Beta virt. eigenvalues --    2.56558   2.57581   2.58663   2.59096   2.59824
  Beta virt. eigenvalues --    2.60486   2.62380   2.63787   2.64904   2.65417
  Beta virt. eigenvalues --    2.67452   2.67784   2.68182   2.70181   2.70756
  Beta virt. eigenvalues --    2.71610   2.72826   2.73768   2.74123   2.74564
  Beta virt. eigenvalues --    2.75904   2.76962   2.78331   2.80748   2.82690
  Beta virt. eigenvalues --    2.83683   2.86398   2.87346   2.87839   2.89868
  Beta virt. eigenvalues --    2.90383   2.92548   2.94286   2.95168   2.97140
  Beta virt. eigenvalues --    2.99295   3.01087   3.03356   3.05965   3.08011
  Beta virt. eigenvalues --    3.08634   3.09348   3.11104   3.12591   3.13771
  Beta virt. eigenvalues --    3.15877   3.19969   3.24177   3.27353   3.30679
  Beta virt. eigenvalues --    3.31540   3.32643   3.35358   3.36690   3.38214
  Beta virt. eigenvalues --    3.38590   3.43509   3.44930   3.48309   3.50703
  Beta virt. eigenvalues --    3.51687   3.53197   3.54935   3.58752   3.66442
  Beta virt. eigenvalues --    3.76020   3.79637   3.90286   4.11029   4.27869
  Beta virt. eigenvalues --    4.38638   4.40611   4.42100   4.43730   4.48526
  Beta virt. eigenvalues --    4.49051   4.49760   4.53301   4.56518   4.58807
  Beta virt. eigenvalues --    4.60597   4.62887   4.64962   4.67807   4.72424
  Beta virt. eigenvalues --    4.74750   4.82309   4.85763   4.93856   5.00916
  Beta virt. eigenvalues --    5.04137
          Condensed to atoms (all electrons):
               1          2          3          4          5          6
     1  C   30.464984 -11.175780   1.120371   0.463782  -2.477809  -4.805141
     2  C  -11.175780  18.232151  -1.554468  -1.869856   5.635270  -3.966796
     3  C    1.120371  -1.554468   8.745831   0.403945  -0.934004  -1.139756
     4  C    0.463782  -1.869856   0.403945   9.341142  -3.249239   2.246975
     5  C   -2.477809   5.635270  -0.934004  -3.249239  18.163454  -9.775685
     6  C   -4.805141  -3.966796  -1.139756   2.246975  -9.775685  31.945622
     7  H    0.128153   0.210616  -0.007068   0.009766  -0.029925  -0.085329
     8  H    0.055958   0.008895   0.205401   0.043247   0.026031  -0.026761
     9  H   -0.042285   0.019926   0.061496   0.181479   0.023229   0.074895
    10  H    0.014806  -0.035742   0.021847  -0.134807   0.263767  -0.079708
    11  C    0.291356  -3.586423  -0.343285   0.577712  -4.393359   9.417885
    12  C   -1.152893   0.704385  -0.321940  -1.696945   1.745723 -11.870631
    13  S   -4.280096   3.354170  -0.205990  -0.379943   2.001049  -2.112152
    14  O   -0.146445   0.076998  -0.022373  -0.000057   0.050938  -0.020105
    15  O   -0.158615   0.045668   0.117106  -0.018076   0.030845  -0.352007
    16  N    0.159824  -0.441777  -0.026809   0.188551  -0.686501   0.863293
    17  C    0.252468  -0.182911   0.109197   0.003723  -0.453989   0.105153
    18  H   -0.002012  -0.001775   0.000150  -0.002161  -0.004341  -0.079153
    19  H   -0.011352  -0.013387  -0.006593   0.010862   0.000368   0.147629
    20  H    0.024683   0.000750   0.000674   0.000380   0.002298  -0.002814
    21  O   -0.176864   0.050571  -0.011115   0.046226   0.198273  -0.848358
    22  H    0.019570   0.003689  -0.000062  -0.005996   0.001730   0.132274
    23  C   -0.920187   0.227030  -0.169439  -0.233630   0.076359  -3.979535
    24  O   -0.000493  -0.004986   0.000648   0.001217  -0.010451   0.071191
    25  N   -0.142811  -0.036498  -0.008018   0.004485  -0.005600  -0.214462
    26  H   -0.003989  -0.001501  -0.000247   0.000088   0.000048   0.008388
    27  C   -0.136690  -0.033592  -0.009541   0.004462  -0.007880  -0.305340
    28  N   -0.001088   0.000125  -0.000034   0.000097   0.002085   0.001927
    29  C   -0.012955   0.000331  -0.000179   0.000616   0.009677  -0.003922
    30  C   -0.017827   0.004005  -0.001167  -0.000439   0.008143  -0.043162
    31  C   -0.001030  -0.000012  -0.000006   0.000035   0.000712  -0.002087
    32  H   -0.000000  -0.000000   0.000000  -0.000000  -0.000000  -0.000001
    33  H   -0.000000  -0.000000  -0.000000   0.000000   0.000000   0.000000
    34  H   -0.000000   0.000000  -0.000000  -0.000000  -0.000000   0.000003
    35  O    0.000158   0.000036   0.000001  -0.000003  -0.000081   0.000753
    36  H    0.000088  -0.000007   0.000001  -0.000004  -0.000144   0.000005
               7          8          9         10         11         12
     1  C    0.128153   0.055958  -0.042285   0.014806   0.291356  -1.152893
     2  C    0.210616   0.008895   0.019926  -0.035742  -3.586423   0.704385
     3  C   -0.007068   0.205401   0.061496   0.021847  -0.343285  -0.321940
     4  C    0.009766   0.043247   0.181479  -0.134807   0.577712  -1.696945
     5  C   -0.029925   0.026031   0.023229   0.263767  -4.393359   1.745723
     6  C   -0.085329  -0.026761   0.074895  -0.079708   9.417885 -11.870631
     7  H    0.556350  -0.005415  -0.000166   0.000017   0.008968  -0.006756
     8  H   -0.005415   0.599246  -0.005845  -0.000176  -0.001111   0.001600
     9  H   -0.000166  -0.005845   0.597290  -0.005336  -0.014651   0.001618
    10  H    0.000017  -0.000176  -0.005336   0.571543   0.157356   0.076153
    11  C    0.008968  -0.001111  -0.014651   0.157356  25.802840 -10.632744
    12  C   -0.006756   0.001600   0.001618   0.076153 -10.632744  26.699136
    13  S    0.080240  -0.004696  -0.000178   0.001938  -2.521192  -0.557404
    14  O   -0.001403  -0.000004   0.000002  -0.000013  -0.043606  -0.233197
    15  O   -0.000021   0.000176  -0.000002   0.000016  -0.160139   0.377500
    16  N    0.000242  -0.000038  -0.000047   0.000442   1.717609  -3.374049
    17  C   -0.001683  -0.000069  -0.000003   0.000445   0.137075  -1.402534
    18  H    0.000000   0.000000  -0.000000   0.000000  -0.176615   0.055866
    19  H   -0.000005  -0.000000  -0.000000  -0.000008   0.088553  -0.067340
    20  H    0.000001   0.000000  -0.000000  -0.000000   0.033283   0.004783
    21  O    0.000002   0.000006   0.000286  -0.005777  -0.219647   0.569993
    22  H   -0.000000   0.000000  -0.000000  -0.000076   0.190604  -0.235872
    23  C   -0.000594  -0.000048  -0.000188   0.017653  -7.818959   7.708321
    24  O    0.000000   0.000000   0.000000  -0.000161  -0.022895  -0.248329
    25  N   -0.000036  -0.000000   0.000000  -0.000025  -0.506592   0.165127
    26  H   -0.000000  -0.000000   0.000000   0.000000   0.025033   0.001031
    27  C    0.000024   0.000000  -0.000000   0.000088  -1.392061   0.377660
    28  N   -0.000000  -0.000000   0.000000  -0.000000   0.019024  -0.068357
    29  C    0.000000   0.000000  -0.000000   0.000000   0.017573  -0.224994
    30  C   -0.000001  -0.000000   0.000000   0.000002  -0.492786   0.145819
    31  C    0.000000   0.000000  -0.000000   0.000000  -0.008095  -0.041129
    32  H    0.000000   0.000000   0.000000   0.000000  -0.000042  -0.000112
    33  H    0.000000   0.000000   0.000000  -0.000000   0.000038  -0.000060
    34  H    0.000000   0.000000  -0.000000   0.000000  -0.000006   0.000210
    35  O    0.000000   0.000000  -0.000000   0.000000   0.003030   0.018583
    36  H    0.000000   0.000000  -0.000000  -0.000000   0.002201  -0.002893
              13         14         15         16         17         18
     1  C   -4.280096  -0.146445  -0.158615   0.159824   0.252468  -0.002012
     2  C    3.354170   0.076998   0.045668  -0.441777  -0.182911  -0.001775
     3  C   -0.205990  -0.022373   0.117106  -0.026809   0.109197   0.000150
     4  C   -0.379943  -0.000057  -0.018076   0.188551   0.003723  -0.002161
     5  C    2.001049   0.050938   0.030845  -0.686501  -0.453989  -0.004341
     6  C   -2.112152  -0.020105  -0.352007   0.863293   0.105153  -0.079153
     7  H    0.080240  -0.001403  -0.000021   0.000242  -0.001683   0.000000
     8  H   -0.004696  -0.000004   0.000176  -0.000038  -0.000069   0.000000
     9  H   -0.000178   0.000002  -0.000002  -0.000047  -0.000003  -0.000000
    10  H    0.001938  -0.000013   0.000016   0.000442   0.000445   0.000000
    11  C   -2.521192  -0.043606  -0.160139   1.717609   0.137075  -0.176615
    12  C   -0.557404  -0.233197   0.377500  -3.374049  -1.402534   0.055866
    13  S   19.756331   0.676562   0.464189  -0.751219  -0.614784   0.043526
    14  O    0.676562   8.517131  -0.203401  -0.091784   0.036697  -0.000258
    15  O    0.464189  -0.203401   8.700219  -0.237325  -0.097716   0.000823
    16  N   -0.751219  -0.091784  -0.237325  11.325097   0.783558  -0.038052
    17  C   -0.614784   0.036697  -0.097716   0.783558   6.316945   0.420041
    18  H    0.043526  -0.000258   0.000823  -0.038052   0.420041   0.564559
    19  H   -0.089921  -0.001380   0.001532  -0.063314   0.385406  -0.034471
    20  H    0.030697   0.000715  -0.006916  -0.090935   0.387377  -0.024641
    21  O    0.044598  -0.000304  -0.000363   0.003024  -0.004890   0.000616
    22  H    0.002161   0.000024   0.000025  -0.001898  -0.003140  -0.000009
    23  C    0.029248  -0.065214   0.044743  -1.051927  -0.108690   0.084262
    24  O   -0.007329   0.000863   0.000263   0.024910   0.027015  -0.000780
    25  N   -0.147794  -0.031353   0.002213  -0.243641   0.058297   0.014148
    26  H   -0.003965  -0.000321  -0.000105   0.011955  -0.011671  -0.000909
    27  C   -0.106870  -0.036243   0.004692  -0.337669   0.010796   0.034822
    28  N    0.000717   0.000203  -0.000084  -0.003378  -0.016005  -0.000711
    29  C    0.028460   0.000578  -0.000468   0.060969  -0.009773   0.000654
    30  C   -0.016192  -0.003150   0.000630  -0.064957  -0.049969  -0.003930
    31  C    0.002009   0.000057  -0.000014   0.006278  -0.001421  -0.000029
    32  H    0.000000   0.000000  -0.000000   0.000000   0.000003   0.000000
    33  H   -0.000000   0.000000   0.000000   0.000000  -0.000002   0.000000
    34  H    0.000000  -0.000000   0.000000  -0.000001   0.000000  -0.000000
    35  O    0.000444  -0.000019   0.000001  -0.000772  -0.000213   0.000033
    36  H    0.000037  -0.000001   0.000000   0.000167  -0.000030   0.000001
              19         20         21         22         23         24
     1  C   -0.011352   0.024683  -0.176864   0.019570  -0.920187  -0.000493
     2  C   -0.013387   0.000750   0.050571   0.003689   0.227030  -0.004986
     3  C   -0.006593   0.000674  -0.011115  -0.000062  -0.169439   0.000648
     4  C    0.010862   0.000380   0.046226  -0.005996  -0.233630   0.001217
     5  C    0.000368   0.002298   0.198273   0.001730   0.076359  -0.010451
     6  C    0.147629  -0.002814  -0.848358   0.132274  -3.979535   0.071191
     7  H   -0.000005   0.000001   0.000002  -0.000000  -0.000594   0.000000
     8  H   -0.000000   0.000000   0.000006   0.000000  -0.000048   0.000000
     9  H   -0.000000  -0.000000   0.000286  -0.000000  -0.000188   0.000000
    10  H   -0.000008  -0.000000  -0.005777  -0.000076   0.017653  -0.000161
    11  C    0.088553   0.033283  -0.219647   0.190604  -7.818959  -0.022895
    12  C   -0.067340   0.004783   0.569993  -0.235872   7.708321  -0.248329
    13  S   -0.089921   0.030697   0.044598   0.002161   0.029248  -0.007329
    14  O   -0.001380   0.000715  -0.000304   0.000024  -0.065214   0.000863
    15  O    0.001532  -0.006916  -0.000363   0.000025   0.044743   0.000263
    16  N   -0.063314  -0.090935   0.003024  -0.001898  -1.051927   0.024910
    17  C    0.385406   0.387377  -0.004890  -0.003140  -0.108690   0.027015
    18  H   -0.034471  -0.024641   0.000616  -0.000009   0.084262  -0.000780
    19  H    0.554270  -0.029959  -0.000499   0.000006  -0.024170   0.000165
    20  H   -0.029959   0.531334  -0.000033   0.000000  -0.021733   0.000063
    21  O   -0.000499  -0.000033   8.625809   0.155006   0.198113  -0.041480
    22  H    0.000006   0.000000   0.155006   0.325435  -0.084773   0.062857
    23  C   -0.024170  -0.021733   0.198113  -0.084773  12.371321   0.228338
    24  O    0.000165   0.000063  -0.041480   0.062857   0.228338   8.649535
    25  N   -0.002334  -0.007353  -0.005046   0.006709   0.802154  -0.200154
    26  H    0.000096  -0.000003   0.000064  -0.000049  -0.075711   0.009997
    27  C   -0.003814  -0.004206  -0.007499   0.004990  -1.280239   0.157938
    28  N    0.000046   0.000089  -0.000102   0.000049  -0.285422   0.002148
    29  C   -0.000107   0.000258   0.000165  -0.001059  -0.947693   0.115591
    30  C    0.000673  -0.000286   0.016515  -0.007590   0.781394  -0.081405
    31  C   -0.000002   0.000008  -0.000009  -0.000028  -0.189479   0.006821
    32  H   -0.000000  -0.000000   0.000000  -0.000000   0.000805  -0.000002
    33  H    0.000000   0.000000  -0.000000   0.000000   0.002065  -0.000007
    34  H    0.000000  -0.000000  -0.000000   0.000000  -0.003135  -0.000007
    35  O    0.000000  -0.000003   0.000008  -0.000001   0.073568  -0.001577
    36  H   -0.000000   0.000000  -0.000090   0.000024   0.047275  -0.011303
              25         26         27         28         29         30
     1  C   -0.142811  -0.003989  -0.136690  -0.001088  -0.012955  -0.017827
     2  C   -0.036498  -0.001501  -0.033592   0.000125   0.000331   0.004005
     3  C   -0.008018  -0.000247  -0.009541  -0.000034  -0.000179  -0.001167
     4  C    0.004485   0.000088   0.004462   0.000097   0.000616  -0.000439
     5  C   -0.005600   0.000048  -0.007880   0.002085   0.009677   0.008143
     6  C   -0.214462   0.008388  -0.305340   0.001927  -0.003922  -0.043162
     7  H   -0.000036  -0.000000   0.000024  -0.000000   0.000000  -0.000001
     8  H   -0.000000  -0.000000   0.000000  -0.000000   0.000000  -0.000000
     9  H    0.000000   0.000000  -0.000000   0.000000  -0.000000   0.000000
    10  H   -0.000025   0.000000   0.000088  -0.000000   0.000000   0.000002
    11  C   -0.506592   0.025033  -1.392061   0.019024   0.017573  -0.492786
    12  C    0.165127   0.001031   0.377660  -0.068357  -0.224994   0.145819
    13  S   -0.147794  -0.003965  -0.106870   0.000717   0.028460  -0.016192
    14  O   -0.031353  -0.000321  -0.036243   0.000203   0.000578  -0.003150
    15  O    0.002213  -0.000105   0.004692  -0.000084  -0.000468   0.000630
    16  N   -0.243641   0.011955  -0.337669  -0.003378   0.060969  -0.064957
    17  C    0.058297  -0.011671   0.010796  -0.016005  -0.009773  -0.049969
    18  H    0.014148  -0.000909   0.034822  -0.000711   0.000654  -0.003930
    19  H   -0.002334   0.000096  -0.003814   0.000046  -0.000107   0.000673
    20  H   -0.007353  -0.000003  -0.004206   0.000089   0.000258  -0.000286
    21  O   -0.005046   0.000064  -0.007499  -0.000102   0.000165   0.016515
    22  H    0.006709  -0.000049   0.004990   0.000049  -0.001059  -0.007590
    23  C    0.802154  -0.075711  -1.280239  -0.285422  -0.947693   0.781394
    24  O   -0.200154   0.009997   0.157938   0.002148   0.115591  -0.081405
    25  N    7.750655   0.252035   0.332652  -0.183365  -0.315762  -0.008944
    26  H    0.252035   0.386985   0.010461   0.013168   0.053118  -0.005593
    27  C    0.332652   0.010461  13.536031  -0.683523   0.140882  -2.168644
    28  N   -0.183365   0.013168  -0.683523   7.641777   0.674334  -0.299909
    29  C   -0.315762   0.053118   0.140882   0.674334  12.630341  -5.650279
    30  C   -0.008944  -0.005593  -2.168644  -0.299909  -5.650279  15.454016
    31  C   -0.054744   0.003697  -2.366077   0.748077  -0.125369  -2.280796
    32  H    0.000048  -0.000000  -0.007448  -0.001107  -0.126438   0.047797
    33  H    0.000056  -0.000000  -0.010275  -0.001898  -0.139967   0.052823
    34  H    0.000019   0.000000   0.015863  -0.002672  -0.018709  -0.011650
    35  O    0.043286  -0.002005  -0.097527   0.019950   0.153845   0.074380
    36  H   -0.001764  -0.000107   0.142627  -0.008035  -0.026145   0.223120
              31         32         33         34         35         36
     1  C   -0.001030  -0.000000  -0.000000  -0.000000   0.000158   0.000088
     2  C   -0.000012  -0.000000  -0.000000   0.000000   0.000036  -0.000007
     3  C   -0.000006   0.000000  -0.000000  -0.000000   0.000001   0.000001
     4  C    0.000035  -0.000000   0.000000  -0.000000  -0.000003  -0.000004
     5  C    0.000712  -0.000000   0.000000  -0.000000  -0.000081  -0.000144
     6  C   -0.002087  -0.000001   0.000000   0.000003   0.000753   0.000005
     7  H    0.000000   0.000000   0.000000   0.000000   0.000000   0.000000
     8  H    0.000000   0.000000   0.000000   0.000000   0.000000   0.000000
     9  H   -0.000000   0.000000   0.000000  -0.000000  -0.000000  -0.000000
    10  H    0.000000   0.000000  -0.000000   0.000000   0.000000  -0.000000
    11  C   -0.008095  -0.000042   0.000038  -0.000006   0.003030   0.002201
    12  C   -0.041129  -0.000112  -0.000060   0.000210   0.018583  -0.002893
    13  S    0.002009   0.000000  -0.000000   0.000000   0.000444   0.000037
    14  O    0.000057   0.000000   0.000000  -0.000000  -0.000019  -0.000001
    15  O   -0.000014  -0.000000   0.000000   0.000000   0.000001   0.000000
    16  N    0.006278   0.000000   0.000000  -0.000001  -0.000772   0.000167
    17  C   -0.001421   0.000003  -0.000002   0.000000  -0.000213  -0.000030
    18  H   -0.000029   0.000000   0.000000  -0.000000   0.000033   0.000001
    19  H   -0.000002  -0.000000   0.000000   0.000000   0.000000  -0.000000
    20  H    0.000008  -0.000000   0.000000  -0.000000  -0.000003   0.000000
    21  O   -0.000009   0.000000  -0.000000  -0.000000   0.000008  -0.000090
    22  H   -0.000028  -0.000000   0.000000   0.000000  -0.000001   0.000024
    23  C   -0.189479   0.000805   0.002065  -0.003135   0.073568   0.047275
    24  O    0.006821  -0.000002  -0.000007  -0.000007  -0.001577  -0.011303
    25  N   -0.054744   0.000048   0.000056   0.000019   0.043286  -0.001764
    26  H    0.003697  -0.000000  -0.000000   0.000000  -0.002005  -0.000107
    27  C   -2.366077  -0.007448  -0.010275   0.015863  -0.097527   0.142627
    28  N    0.748077  -0.001107  -0.001898  -0.002672   0.019950  -0.008035
    29  C   -0.125369  -0.126438  -0.139967  -0.018709   0.153845  -0.026145
    30  C   -2.280796   0.047797   0.052823  -0.011650   0.074380   0.223120
    31  C    9.927830   0.441581   0.451982   0.372982  -0.215997  -0.048659
    32  H    0.441581   0.528307  -0.028799  -0.024435  -0.003693   0.000032
    33  H    0.451982  -0.028799   0.526475  -0.024150  -0.003472   0.000030
    34  H    0.372982  -0.024435  -0.024150   0.519786   0.007432   0.000177
    35  O   -0.215997  -0.003693  -0.003472   0.007432   7.844874   0.009485
    36  H   -0.048659   0.000032   0.000030   0.000177   0.009485   0.490180
          Atomic-Atomic Spin Densities.
               1          2          3          4          5          6
     1  C    4.851933  -3.751881   0.332289   0.285958  -1.645889  -0.386047
     2  C   -3.751881   3.482786  -0.385673  -0.255532   1.597485  -0.092759
     3  C    0.332289  -0.385673   0.460737   0.012260  -0.194376   0.019528
     4  C    0.285958  -0.255532   0.012260   0.064521   0.333411  -0.368396
     5  C   -1.645889   1.597485  -0.194376   0.333411   2.623418  -0.969043
     6  C   -0.386047  -0.092759   0.019528  -0.368396  -0.969043   1.095079
     7  H    0.015399  -0.011843   0.000378   0.001684  -0.001326  -0.006439
     8  H    0.002930  -0.010593   0.007260   0.003235  -0.000240  -0.002369
     9  H   -0.003093   0.003254   0.004000   0.003912  -0.009804   0.001599
    10  H   -0.000472  -0.005312  -0.000220   0.000320  -0.018659   0.017362
    11  C    1.303881  -1.146679   0.087218  -0.096321  -1.577486   0.475086
    12  C   -0.153976   0.000570  -0.066045   0.064888  -0.008422   0.130529
    13  S   -1.705869   1.462677  -0.183481  -0.069585   1.072965   0.264559
    14  O   -0.156247   0.101083  -0.006703  -0.004964   0.058525   0.052614
    15  O   -0.009077  -0.011495   0.000036   0.002260  -0.000227   0.014094
    16  N    0.875225  -0.642248   0.095438   0.001338  -0.592902  -0.241829
    17  C    0.360086  -0.370325   0.062031  -0.000567  -0.461803   0.005160
    18  H   -0.000350  -0.001148   0.000133  -0.000044  -0.002284  -0.000646
    19  H   -0.005142   0.009378  -0.001724   0.000164   0.012903  -0.002611
    20  H   -0.002766   0.004613  -0.000880  -0.000065   0.003407   0.002247
    21  O   -0.013326   0.018647  -0.000614   0.011214   0.077404  -0.084327
    22  H   -0.000734   0.001192  -0.000030   0.000477   0.010687  -0.002276
    23  C   -0.018873  -0.068745  -0.001532   0.006865  -0.159189   0.139005
    24  O   -0.002310   0.000017   0.000114  -0.000281  -0.004934   0.006458
    25  N   -0.000080  -0.017113   0.001402  -0.000300  -0.036541  -0.014928
    26  H   -0.000054   0.000205  -0.000019   0.000003   0.000445   0.001034
    27  C   -0.008055  -0.005773   0.000160  -0.000374  -0.024248  -0.009285
    28  N    0.000146   0.000301  -0.000031   0.000014   0.000940   0.001176
    29  C    0.001213   0.000806  -0.000060   0.000092   0.004363   0.002818
    30  C   -0.000671   0.000912  -0.000081   0.000268   0.006011   0.002402
    31  C    0.000150   0.000035  -0.000002   0.000005   0.000312   0.000242
    32  H   -0.000000  -0.000000   0.000000  -0.000000  -0.000000  -0.000000
    33  H    0.000000   0.000000  -0.000000   0.000000   0.000000   0.000000
    34  H    0.000000   0.000000  -0.000000   0.000000   0.000000   0.000000
    35  O    0.000012   0.000003  -0.000000   0.000000   0.000007   0.000060
    36  H   -0.000001  -0.000000  -0.000000  -0.000000  -0.000005   0.000000
               7          8          9         10         11         12
     1  C    0.015399   0.002930  -0.003093  -0.000472   1.303881  -0.153976
     2  C   -0.011843  -0.010593   0.003254  -0.005312  -1.146679   0.000570
     3  C    0.000378   0.007260   0.004000  -0.000220   0.087218  -0.066045
     4  C    0.001684   0.003235   0.003912   0.000320  -0.096321   0.064888
     5  C   -0.001326  -0.000240  -0.009804  -0.018659  -1.577486  -0.008422
     6  C   -0.006439  -0.002369   0.001599   0.017362   0.475086   0.130529
     7  H    0.003398   0.000068   0.000000   0.000000   0.001464  -0.000378
     8  H    0.000068  -0.011329   0.000022   0.000001   0.000028   0.000010
     9  H    0.000000   0.000022   0.000003   0.000079  -0.000440   0.000072
    10  H    0.000000   0.000001   0.000079  -0.004110   0.008176  -0.000251
    11  C    0.001464   0.000028  -0.000440   0.008176   0.925158   0.096657
    12  C   -0.000378   0.000010   0.000072  -0.000251   0.096657  -0.014185
    13  S   -0.001421  -0.000169   0.000158  -0.001193  -0.842934   0.283434
    14  O   -0.000164   0.000001   0.000001  -0.000011  -0.062940   0.009996
    15  O    0.000266   0.000001  -0.000000  -0.000003   0.010010  -0.026149
    16  N    0.001119   0.000020  -0.000020   0.000446   0.473191   0.023942
    17  C    0.000670   0.000014  -0.000026   0.000405   0.399340  -0.270820
    18  H    0.000000   0.000000  -0.000000   0.000000   0.003476  -0.006038
    19  H   -0.000003  -0.000000   0.000000  -0.000001  -0.013504   0.011891
    20  H   -0.000002  -0.000000   0.000000  -0.000000  -0.005230   0.007630
    21  O   -0.000003  -0.000001   0.000008  -0.000703  -0.092936   0.043123
    22  H   -0.000000  -0.000000   0.000000  -0.000024   0.000481  -0.004881
    23  C    0.000018  -0.000002  -0.000009   0.000159   0.260515  -0.037769
    24  O   -0.000000   0.000000  -0.000000  -0.000002  -0.006389  -0.027680
    25  N    0.000002   0.000000  -0.000000   0.000011   0.032589  -0.036386
    26  H   -0.000000  -0.000000   0.000000  -0.000000   0.000474   0.000085
    27  C    0.000000  -0.000000   0.000000   0.000009  -0.010295   0.028334
    28  N   -0.000000  -0.000000   0.000000  -0.000000   0.000333   0.003567
    29  C   -0.000000  -0.000000   0.000000  -0.000000   0.009333  -0.013015
    30  C   -0.000000  -0.000000   0.000000  -0.000002   0.015768  -0.008519
    31  C   -0.000000  -0.000000   0.000000  -0.000000   0.001763  -0.004330
    32  H    0.000000   0.000000  -0.000000   0.000000  -0.000004   0.000010
    33  H   -0.000000   0.000000   0.000000  -0.000000   0.000005  -0.000015
    34  H   -0.000000   0.000000   0.000000  -0.000000   0.000001  -0.000002
    35  O   -0.000000   0.000000  -0.000000  -0.000000   0.000382  -0.000761
    36  H    0.000000   0.000000  -0.000000  -0.000000  -0.000128   0.000090
              13         14         15         16         17         18
     1  C   -1.705869  -0.156247  -0.009077   0.875225   0.360086  -0.000350
     2  C    1.462677   0.101083  -0.011495  -0.642248  -0.370325  -0.001148
     3  C   -0.183481  -0.006703   0.000036   0.095438   0.062031   0.000133
     4  C   -0.069585  -0.004964   0.002260   0.001338  -0.000567  -0.000044
     5  C    1.072965   0.058525  -0.000227  -0.592902  -0.461803  -0.002284
     6  C    0.264559   0.052614   0.014094  -0.241829   0.005160  -0.000646
     7  H   -0.001421  -0.000164   0.000266   0.001119   0.000670   0.000000
     8  H   -0.000169   0.000001   0.000001   0.000020   0.000014   0.000000
     9  H    0.000158   0.000001  -0.000000  -0.000020  -0.000026  -0.000000
    10  H   -0.001193  -0.000011  -0.000003   0.000446   0.000405   0.000000
    11  C   -0.842934  -0.062940   0.010010   0.473191   0.399340   0.003476
    12  C    0.283434   0.009996  -0.026149   0.023942  -0.270820  -0.006038
    13  S    1.840306   0.109509  -0.007271  -1.244935  -0.834463  -0.005033
    14  O    0.109509   0.033277   0.003318  -0.092178  -0.033804  -0.000087
    15  O   -0.007271   0.003318   0.008983   0.021086   0.003974  -0.000095
    16  N   -1.244935  -0.092178   0.021086   0.802820   0.467148   0.001789
    17  C   -0.834463  -0.033804   0.003974   0.467148   0.600332   0.010438
    18  H   -0.005033  -0.000087  -0.000095   0.001789   0.010438  -0.000127
    19  H    0.020237   0.000325   0.000059  -0.013877  -0.018695  -0.000332
    20  H    0.022194   0.000383  -0.000866  -0.012075  -0.019233  -0.000340
    21  O    0.009665   0.000027   0.000021  -0.006634  -0.012757  -0.000072
    22  H    0.002747   0.000059   0.000004  -0.001127  -0.002068  -0.000001
    23  C   -0.035108  -0.001178  -0.003650   0.090295  -0.038497  -0.002482
    24  O   -0.003130   0.000066   0.000009  -0.005763   0.015153   0.000212
    25  N   -0.090447  -0.004290  -0.001196   0.009242   0.109292   0.002239
    26  H    0.002960   0.000095   0.000039   0.000984  -0.004295  -0.000051
    27  C   -0.034118  -0.001172  -0.000485  -0.022645   0.057100   0.001020
    28  N    0.004730   0.000102   0.000035   0.004224  -0.010041  -0.000185
    29  C    0.009066   0.000179   0.000080   0.009150  -0.019773  -0.000154
    30  C    0.007991   0.000215   0.000056   0.001216  -0.013572  -0.000173
    31  C    0.000610   0.000005   0.000003   0.001156  -0.001932  -0.000005
    32  H   -0.000000  -0.000000  -0.000000  -0.000001   0.000003   0.000000
    33  H    0.000000  -0.000000   0.000000   0.000001  -0.000002  -0.000000
    34  H    0.000000   0.000000   0.000000   0.000000  -0.000000  -0.000000
    35  O    0.000066   0.000001   0.000001   0.000086  -0.000083   0.000001
    36  H   -0.000002  -0.000000  -0.000000  -0.000009   0.000017   0.000000
              19         20         21         22         23         24
     1  C   -0.005142  -0.002766  -0.013326  -0.000734  -0.018873  -0.002310
     2  C    0.009378   0.004613   0.018647   0.001192  -0.068745   0.000017
     3  C   -0.001724  -0.000880  -0.000614  -0.000030  -0.001532   0.000114
     4  C    0.000164  -0.000065   0.011214   0.000477   0.006865  -0.000281
     5  C    0.012903   0.003407   0.077404   0.010687  -0.159189  -0.004934
     6  C   -0.002611   0.002247  -0.084327  -0.002276   0.139005   0.006458
     7  H   -0.000003  -0.000002  -0.000003  -0.000000   0.000018  -0.000000
     8  H   -0.000000  -0.000000  -0.000001  -0.000000  -0.000002   0.000000
     9  H    0.000000   0.000000   0.000008   0.000000  -0.000009  -0.000000
    10  H   -0.000001  -0.000000  -0.000703  -0.000024   0.000159  -0.000002
    11  C   -0.013504  -0.005230  -0.092936   0.000481   0.260515  -0.006389
    12  C    0.011891   0.007630   0.043123  -0.004881  -0.037769  -0.027680
    13  S    0.020237   0.022194   0.009665   0.002747  -0.035108  -0.003130
    14  O    0.000325   0.000383   0.000027   0.000059  -0.001178   0.000066
    15  O    0.000059  -0.000866   0.000021   0.000004  -0.003650   0.000009
    16  N   -0.013877  -0.012075  -0.006634  -0.001127   0.090295  -0.005763
    17  C   -0.018695  -0.019233  -0.012757  -0.002068  -0.038497   0.015153
    18  H   -0.000332  -0.000340  -0.000072  -0.000001  -0.002482   0.000212
    19  H    0.002580   0.000931   0.000246   0.000003   0.000155  -0.000101
    20  H    0.000931   0.001989   0.000024   0.000000   0.000799  -0.000028
    21  O    0.000246   0.000024   0.098312  -0.001271  -0.003150  -0.004803
    22  H    0.000003   0.000000  -0.001271  -0.001022  -0.003061  -0.000274
    23  C    0.000155   0.000799  -0.003150  -0.003061   0.096602  -0.037143
    24  O   -0.000101  -0.000028  -0.004803  -0.000274  -0.037143   0.101190
    25  N   -0.001134  -0.001616  -0.001144  -0.000374  -0.046427   0.013256
    26  H    0.000006   0.000026  -0.000003   0.000003   0.002329  -0.000132
    27  C   -0.000150  -0.000288   0.001255  -0.001026  -0.090320   0.016258
    28  N    0.000024   0.000077  -0.000013   0.000017   0.002360  -0.001272
    29  C    0.000042   0.000051  -0.000387   0.000189   0.039759  -0.005155
    30  C    0.000057   0.000050  -0.000564   0.000284   0.005566  -0.002837
    31  C    0.000001   0.000001  -0.000053   0.000019   0.008527  -0.000770
    32  H   -0.000000  -0.000000   0.000000  -0.000000  -0.000088   0.000002
    33  H    0.000000   0.000000  -0.000000   0.000000   0.000097  -0.000000
    34  H    0.000000   0.000000  -0.000000   0.000000   0.000003  -0.000000
    35  O   -0.000000   0.000000  -0.000002   0.000000   0.001902   0.000098
    36  H   -0.000000  -0.000000   0.000002  -0.000001  -0.000332   0.000016
              25         26         27         28         29         30
     1  C   -0.000080  -0.000054  -0.008055   0.000146   0.001213  -0.000671
     2  C   -0.017113   0.000205  -0.005773   0.000301   0.000806   0.000912
     3  C    0.001402  -0.000019   0.000160  -0.000031  -0.000060  -0.000081
     4  C   -0.000300   0.000003  -0.000374   0.000014   0.000092   0.000268
     5  C   -0.036541   0.000445  -0.024248   0.000940   0.004363   0.006011
     6  C   -0.014928   0.001034  -0.009285   0.001176   0.002818   0.002402
     7  H    0.000002  -0.000000   0.000000  -0.000000  -0.000000  -0.000000
     8  H    0.000000  -0.000000  -0.000000  -0.000000  -0.000000  -0.000000
     9  H   -0.000000   0.000000   0.000000   0.000000   0.000000   0.000000
    10  H    0.000011  -0.000000   0.000009  -0.000000  -0.000000  -0.000002
    11  C    0.032589   0.000474  -0.010295   0.000333   0.009333   0.015768
    12  C   -0.036386   0.000085   0.028334   0.003567  -0.013015  -0.008519
    13  S   -0.090447   0.002960  -0.034118   0.004730   0.009066   0.007991
    14  O   -0.004290   0.000095  -0.001172   0.000102   0.000179   0.000215
    15  O   -0.001196   0.000039  -0.000485   0.000035   0.000080   0.000056
    16  N    0.009242   0.000984  -0.022645   0.004224   0.009150   0.001216
    17  C    0.109292  -0.004295   0.057100  -0.010041  -0.019773  -0.013572
    18  H    0.002239  -0.000051   0.001020  -0.000185  -0.000154  -0.000173
    19  H   -0.001134   0.000006  -0.000150   0.000024   0.000042   0.000057
    20  H   -0.001616   0.000026  -0.000288   0.000077   0.000051   0.000050
    21  O   -0.001144  -0.000003   0.001255  -0.000013  -0.000387  -0.000564
    22  H   -0.000374   0.000003  -0.001026   0.000017   0.000189   0.000284
    23  C   -0.046427   0.002329  -0.090320   0.002360   0.039759   0.005566
    24  O    0.013256  -0.000132   0.016258  -0.001272  -0.005155  -0.002837
    25  N    0.071465  -0.003012   0.041549  -0.011716  -0.011128  -0.007153
    26  H   -0.003012  -0.000026  -0.003177   0.000411   0.001241   0.000272
    27  C    0.041549  -0.003177   0.312709  -0.014978  -0.116105  -0.043695
    28  N   -0.011716   0.000411  -0.014978   0.058069   0.007772   0.003623
    29  C   -0.011128   0.001241  -0.116105   0.007772   0.059034   0.023416
    30  C   -0.007153   0.000272  -0.043695   0.003623   0.023416   0.002200
    31  C    0.001948   0.000110  -0.069809  -0.003616   0.005018   0.006634
    32  H   -0.000027  -0.000000   0.001833   0.000100   0.001450   0.000321
    33  H    0.000040   0.000000  -0.001834  -0.000239  -0.002062  -0.000320
    34  H    0.000003   0.000000  -0.000129  -0.000001  -0.000095  -0.000155
    35  O    0.000371   0.000013  -0.001580  -0.012450  -0.003975  -0.000734
    36  H   -0.000066  -0.000000   0.000601   0.000012   0.000289  -0.000370
              31         32         33         34         35         36
     1  C    0.000150  -0.000000   0.000000   0.000000   0.000012  -0.000001
     2  C    0.000035  -0.000000   0.000000   0.000000   0.000003  -0.000000
     3  C   -0.000002   0.000000  -0.000000  -0.000000  -0.000000  -0.000000
     4  C    0.000005  -0.000000   0.000000   0.000000   0.000000  -0.000000
     5  C    0.000312  -0.000000   0.000000   0.000000   0.000007  -0.000005
     6  C    0.000242  -0.000000   0.000000   0.000000   0.000060   0.000000
     7  H   -0.000000   0.000000  -0.000000  -0.000000  -0.000000   0.000000
     8  H   -0.000000   0.000000   0.000000   0.000000   0.000000   0.000000
     9  H    0.000000  -0.000000   0.000000   0.000000  -0.000000  -0.000000
    10  H   -0.000000   0.000000  -0.000000  -0.000000  -0.000000  -0.000000
    11  C    0.001763  -0.000004   0.000005   0.000001   0.000382  -0.000128
    12  C   -0.004330   0.000010  -0.000015  -0.000002  -0.000761   0.000090
    13  S    0.000610  -0.000000   0.000000   0.000000   0.000066  -0.000002
    14  O    0.000005  -0.000000  -0.000000   0.000000   0.000001  -0.000000
    15  O    0.000003  -0.000000   0.000000   0.000000   0.000001  -0.000000
    16  N    0.001156  -0.000001   0.000001   0.000000   0.000086  -0.000009
    17  C   -0.001932   0.000003  -0.000002  -0.000000  -0.000083   0.000017
    18  H   -0.000005   0.000000  -0.000000  -0.000000   0.000001   0.000000
    19  H    0.000001  -0.000000   0.000000   0.000000  -0.000000  -0.000000
    20  H    0.000001  -0.000000   0.000000   0.000000   0.000000  -0.000000
    21  O   -0.000053   0.000000  -0.000000  -0.000000  -0.000002   0.000002
    22  H    0.000019  -0.000000   0.000000   0.000000   0.000000  -0.000001
    23  C    0.008527  -0.000088   0.000097   0.000003   0.001902  -0.000332
    24  O   -0.000770   0.000002  -0.000000  -0.000000   0.000098   0.000016
    25  N    0.001948  -0.000027   0.000040   0.000003   0.000371  -0.000066
    26  H    0.000110  -0.000000   0.000000   0.000000   0.000013  -0.000000
    27  C   -0.069809   0.001833  -0.001834  -0.000129  -0.001580   0.000601
    28  N   -0.003616   0.000100  -0.000239  -0.000001  -0.012450   0.000012
    29  C    0.005018   0.001450  -0.002062  -0.000095  -0.003975   0.000289
    30  C    0.006634   0.000321  -0.000320  -0.000155  -0.000734  -0.000370
    31  C    0.053850  -0.004086   0.003920   0.000388   0.001451  -0.000028
    32  H   -0.004086   0.000528  -0.000192  -0.000017   0.000272   0.000000
    33  H    0.003920  -0.000192   0.000565   0.000022   0.000185  -0.000000
    34  H    0.000388  -0.000017   0.000022  -0.000037  -0.000001   0.000000
    35  O    0.001451   0.000272   0.000185  -0.000001   0.019668  -0.000008
    36  H   -0.000028   0.000000  -0.000000   0.000000  -0.000008  -0.000146
 Mulliken charges and spin densities:
               1          2
[...]
   263. RY*(   4) N  16                  0.00130     1.04329   
   264. RY*(   5) N  16                  0.00066     1.28304   
   265. RY*(   6) N  16                  0.00048     1.45853   
   266. RY*(   7) N  16                  0.00042     1.37248   
   267. RY*(   8) N  16                  0.00030     1.01841   
   268. RY*(   9) N  16                  0.00019     1.82070   
   269. RY*(  10) N  16                  0.00013     2.42168   
   270. RY*(  11) N  16                  0.00011     2.12377   
   271. RY*(  12) N  16                  0.00005     2.29346   
   272. RY*(  13) N  16                  0.00002     3.86029   
   273. RY*(  14) N  16                  0.00002     2.37599   
   274. RY*(   1) C  17                  0.00135     0.86722   
   275. RY*(   2) C  17                  0.00100     1.31080   
   276. RY*(   3) C  17                  0.00080     0.71928   
   277. RY*(   4) C  17                  0.00038     1.32867   
   278. RY*(   5) C  17                  0.00014     0.90008   
   279. RY*(   6) C  17                  0.00012     0.84801   
   280. RY*(   7) C  17                  0.00011     1.16809   
   281. RY*(   8) C  17                  0.00007     0.96336   
   282. RY*(   9) C  17                  0.00003     1.29998   
   283. RY*(  10) C  17                  0.00002     1.39891   
   284. RY*(  11) C  17                  0.00000     4.37494   
   285. RY*(  12) C  17                  0.00001     2.26590   
   286. RY*(  13) C  17                  0.00000     2.31467   
   287. RY*(  14) C  17                  0.00001     2.18851   
   288. RY*(   1) H  18                  0.00049     0.83090   
   289. RY*(   2) H  18                  0.00007     2.42326   
   290. RY*(   3) H  18                  0.00005     2.44927   
   291. RY*(   4) H  18                  0.00001     3.13057   
   292. RY*(   1) H  19                  0.00083     0.85277   
   293. RY*(   2) H  19                  0.00005     2.45473   
   294. RY*(   3) H  19                  0.00005     2.45316   
   295. RY*(   4) H  19                  0.00001     3.14737   
   296. RY*(   1) H  20                  0.00039     0.83392   
   297. RY*(   2) H  20                  0.00007     2.43692   
   298. RY*(   3) H  20                  0.00004     2.46926   
   299. RY*(   4) H  20                  0.00001     3.10032   
   300. RY*(   1) O  21                  0.00136     0.65001   
   301. RY*(   2) O  21                  0.00113     1.01291   
   302. RY*(   3) O  21                  0.00018     1.29300   
   303. RY*(   4) O  21                  0.00010     2.19553   
   304. RY*(   5) O  21                  0.00008     1.26961   
   305. RY*(   6) O  21                  0.00006     1.32187   
   306. RY*(   7) O  21                  0.00004     1.38983   
   307. RY*(   8) O  21                  0.00003     2.15989   
   308. RY*(   9) O  21                  0.00001     1.86360   
   309. RY*(  10) O  21                  0.00002     2.86299   
   310. RY*(  11) O  21                  0.00001     1.96751   
   311. RY*(  12) O  21                  0.00000     2.20801   
   312. RY*(  13) O  21                  0.00000     2.89445   
   313. RY*(  14) O  21                  0.00001     2.42503   
   318. RY*(   1) C  23                  0.00764     1.03221   
   319. RY*(   2) C  23                  0.00303     1.28832   
   320. RY*(   3) C  23                  0.00162     2.19651   
   321. RY*(   4) C  23                  0.00112     2.45766   
   322. RY*(   5) C  23                  0.00090     1.43370   
   323. RY*(   6) C  23                  0.00066     1.91544   
   324. RY*(   7) C  23                  0.00018     1.21297   
   325. RY*(   8) C  23                  0.00015     2.19210   
   326. RY*(   9) C  23                  0.00009     3.30046   
   327. RY*(  10) C  23                  0.00003     1.01383   
   328. RY*(  11) C  23                  0.00004     1.32523   
   329. RY*(  12) C  23                  0.00003     0.70053   
   330. RY*(  13) C  23                  0.00001     2.51070   
   331. RY*(  14) C  23                  0.00000     0.75985   
   332. RY*(   1) O  24                  0.00138     1.15419   
   333. RY*(   2) O  24                  0.00124     0.69359   
   334. RY*(   3) O  24                  0.00037     1.96690   
   335. RY*(   4) O  24                  0.00010     1.31263   
   336. RY*(   5) O  24                  0.00007     1.47743   
   337. RY*(   6) O  24                  0.00007     1.54071   
   338. RY*(   7) O  24                  0.00003     2.23594   
   339. RY*(   8) O  24                  0.00002     1.17167   
   340. RY*(   9) O  24                  0.00002     2.93667   
   341. RY*(  10) O  24                  0.00002     1.35671   
   342. RY*(  11) O  24                  0.00002     1.84456   
   343. RY*(  12) O  24                  0.00002     2.50451   
   344. RY*(  13) O  24                  0.00000     1.98070   
   345. RY*(  14) O  24                  0.00001     2.23640   
   346. RY*(   1) N  25                  0.00170     1.39304   
   347. RY*(   2) N  25                  0.00139     0.95916   
   348. RY*(   3) N  25                  0.00097     1.33494   
   349. RY*(   4) N  25                  0.00042     1.85460   
   350. RY*(   5) N  25                  0.00026     1.57557   
   351. RY*(   6) N  25                  0.00014     1.33792   
   352. RY*(   7) N  25                  0.00006     1.11991   
   353. RY*(   8) N  25                  0.00007     1.41316   
   354. RY*(   9) N  25                  0.00006     2.21682   
   355. RY*(  10) N  25                  0.00003     2.31589   
   356. RY*(  11) N  25                  0.00002     2.03554   
   357. RY*(  12) N  25                  0.00002     1.61774   
   358. RY*(  13) N  25                  0.00000     4.13337   
   359. RY*(  14) N  25                  0.00001     2.45256   
   360. RY*(   1) H  26                  0.00127     0.98566   
   361. RY*(   2) H  26                  0.00017     2.38385   
   362. RY*(   3) H  26                  0.00006     2.78657   
   363. RY*(   4) H  26                  0.00002     3.19640   
   364. RY*(   1) C  27                  0.00587     1.00798   
   365. RY*(   2) C  27                  0.00188     1.14516   
   366. RY*(   3) C  27                  0.00114     1.89990   
   367. RY*(   4) C  27                  0.00102     1.62013   
   368. RY*(   5) C  27                  0.00065     1.86326   
   369. RY*(   6) C  27                  0.00027     1.26921   
   370. RY*(   7) C  27                  0.00014     2.37575   
   371. RY*(   8) C  27                  0.00009     0.92184   
   372. RY*(   9) C  27                  0.00008     1.04928   
   373. RY*(  10) C  27                  0.00006     3.56659   
   374. RY*(  11) C  27                  0.00003     1.67496   
   375. RY*(  12) C  27                  0.00003     0.45147   
   376. RY*(  13) C  27                  0.00001     0.90954   
   377. RY*(  14) C  27                  0.00001     2.40045   
   378. RY*(   1) N  28                  0.00161     1.01521   
   379. RY*(   2) N  28                  0.00084     1.09045   
   380. RY*(   3) N  28                  0.00073     0.91687   
   381. RY*(   4) N  28                  0.00032     1.60604   
   382. RY*(   5) N  28                  0.00029     1.41810   
   383. RY*(   6) N  28                  0.00016     1.18674   
   384. RY*(   7) N  28                  0.00007     1.79245   
   385. RY*(   8) N  28                  0.00004     1.32257   
   386. RY*(   9) N  28                  0.00002     1.11280   
   387. RY*(  10) N  28                  0.00001     1.71151   
   388. RY*(  11) N  28                  0.00001     4.07712   
   389. RY*(  12) N  28                  0.00001     1.04171   
   390. RY*(  13) N  28                  0.00000     1.33553   
   391. RY*(  14) N  28                  0.00001     2.31772   
   392. RY*(   1) C  29                  0.00380     0.94453   
   393. RY*(   2) C  29                  0.00219     1.21672   
   394. RY*(   3) C  29                  0.00123     1.85732   
   395. RY*(   4) C  29                  0.00097     1.00649   
   396. RY*(   5) C  29                  0.00059     1.83430   
   397. RY*(   6) C  29                  0.00025     1.76669   
   398. RY*(   7) C  29                  0.00016     1.93954   
   399. RY*(   8) C  29                  0.00014     1.77498   
   400. RY*(   9) C  29                  0.00007     1.29646   
   401. RY*(  10) C  29                  0.00004     2.81813   
   402. RY*(  11) C  29                  0.00003     0.92060   
   403. RY*(  12) C  29                  0.00001     1.25721   
   404. RY*(  13) C  29                  0.00000     0.48682   
   405. RY*(  14) C  29                  0.00001     2.40542   
   406. RY*(   1) C  30                  0.00157     1.15508   
   407. RY*(   2) C  30                  0.00121     0.86653   
   408. RY*(   3) C  30                  0.00046     0.46588   
   409. RY*(   4) C  30                  0.00030     0.69212   
   410. RY*(   5) C  30                  0.00013     1.93911   
   411. RY*(   6) C  30                  0.00010     1.40731   
   412. RY*(   7) C  30                  0.00008     1.00620   
   413. RY*(   8) C  30                  0.00004     0.78531   
   414. RY*(   9) C  30                  0.00003     0.80616   
   415. RY*(  10) C  30                  0.00002     2.23112   
   416. RY*(  11) C  30                  0.00001     1.95038   
   417. RY*(  12) C  30                  0.00000     1.85836   
   418. RY*(  13) C  30                  0.00001     4.10836   
   419. RY*(  14) C  30                  0.00001     2.49811   
   420. RY*(   1) C  31                  0.00146     0.73955   
   421. RY*(   2) C  31                  0.00034     0.75676   
   422. RY*(   3) C  31                  0.00023     1.50116   
   423. RY*(   4) C  31                  0.00010     0.84015   
   424. RY*(   5) C  31                  0.00007     0.44231   
   425. RY*(   6) C  31                  0.00005     1.32337   
   426. RY*(   7) C  31                  0.00001     0.98177   
   427. RY*(   8) C  31                  0.00001     0.49744   
   428. RY*(   9) C  31                  0.00002     0.62196   
   429. RY*(  10) C  31                  0.00001     2.29261   
   430. RY*(  11) C  31                  0.00000     4.10896   
   431. RY*(  12) C  31                  0.00000     2.19235   
   432. RY*(  13) C  31                  0.00000     1.95347   
   433. RY*(  14) C  31                  0.00000     2.38616   
   434. RY*(   1) H  32                  0.00054     0.72735   
   435. RY*(   2) H  32                  0.00005     2.36576   
   436. RY*(   3) H  32                  0.00006     2.36011   
   437. RY*(   4) H  32                  0.00000     3.09745   
   438. RY*(   1) H  33                  0.00054     0.72822   
   439. RY*(   2) H  33                  0.00005     2.37043   
   440. RY*(   3) H  33                  0.00006     2.35493   
   441. RY*(   4) H  33                  0.00000     3.09797   
   442. RY*(   1) H  34                  0.00019     0.74799   
   443. RY*(   2) H  34                  0.00005     2.31910   
   444. RY*(   3) H  34                  0.00005     2.34738   
   445. RY*(   4) H  34                  0.00000     3.10015   
   446. RY*(   1) O  35                  0.00259     0.88238   
   447. RY*(   2) O  35                  0.00109     0.77365   
   448. RY*(   3) O  35                  0.00078     0.63217   
   449. RY*(   4) O  35                  0.00047     2.01243   
   450. RY*(   5) O  35                  0.00043     1.36637   
   451. RY*(   6) O  35                  0.00013     1.52282   
   452. RY*(   7) O  35                  0.00008     1.32269   
   453. RY*(   8) O  35                  0.00004     2.05184   
   454. RY*(   9) O  35                  0.00001     1.12381   
   455. RY*(  10) O  35                  0.00000     3.99343   
   456. RY*(  11) O  35                  0.00000     1.70466   
   457. RY*(  12) O  35                  0.00000     1.85829   
   458. RY*(  13) O  35                  0.00001     2.64471   
   459. RY*(  14) O  35                  0.00000     2.45392   
   460. RY*(   1) H  36                  0.00055     0.68919   
   461. RY*(   2) H  36                  0.00007     2.30127   
   462. RY*(   3) H  36                  0.00006     2.64428   
   463. RY*(   4) H  36                  0.00001     3.18272   
   464. BD*(   1) C   1 - C   2          0.01121     0.70309   
   465. BD*(   2) C   1 - C   2          0.18603     0.14657  471(v),72(v),106(g),483(v)
                                                    93(g),485(v),120(v),484(v)
   466. BD*(   1) C   1 - C   6          0.01478     0.70095   
   467. BD*(   1) C   1 - S  13          0.09674     0.31402   
   468. BD*(   1) C   2 - C   3          0.00845     0.70659   
   469. BD*(   1) C   2 - H   7          0.00709     0.55234   
   470. BD*(   1) C   3 - C   4          0.00846     0.70783   
   471. BD*(   2) C   3 - C   4          0.16032     0.15789  465(v),71(v),120(g),134(g)
   472. BD*(   1) C   3 - H   8          0.00676     0.55035   
   473. BD*(   1) C   4 - C   5          0.00774     0.71454   
   474. BD*(   1) C   4 - H   9          0.00661     0.55349   
   475. BD*(   1) C   5 - C   6          0.01137     0.71173   
   476. BD*(   1) C   5 - H  10          0.00698     0.56204   
   477. BD*(   1) C   6 - C  11          0.01713     0.63704   
   478. BD*(   1) C  11 - C  12          0.01525     0.75515   
   479. BD*(   2) C  11 - C  12          0.13192     0.17908  491(v),72(v),485(v),486(v)
                                                    300(v),196(g)
   480. BD*(   1) C  11 - O  21          0.00838     0.54103   
   481. BD*(   1) C  12 - N  16          0.01402     0.51315   
   482. BD*(   1) C  12 - C  23          0.02913     0.61862   
   483. BD*(   1) S  13 - O  14          0.07353     0.42547   
   484. BD*(   1) S  13 - O  15          0.07125     0.41162   
   485. BD*(   1) S  13 - N  16          0.12963     0.25261  219(g),218(g),479(v),486(g)
                                                    225(g),465(v),483(g),481(g)
                                                    484(g),487(v),222(g),265(g)
   486. BD*(   1) N  16 - C  17          0.01131     0.42386   
   487. BD*(   1) C  17 - H  18          0.00509     0.51328   
   488. BD*(   1) C  17 - H  19          0.01001     0.50829   
   489. BD*(   1) C  17 - H  20          0.00484     0.52582   
   490. BD*(   1) C  23 - O  24          0.00636     0.67784   
   491. BD*(   2) C  23 - O  24          0.18058     0.13967  479(v),333(g),320(g),324(g)
                                                    344(g),83(r)
   492. BD*(   1) C  23 - N  25          0.03318     0.59251   
   493. BD*(   1) N  25 - H  26          0.01281     0.51945   
   494. BD*(   1) N  25 - C  27          0.01566     0.55481   
   495. BD*(   1) C  27 - N  28          0.00788     0.63460   
   496. BD*(   2) C  27 - N  28          0.18838     0.10599  500(v),372(g),381(g),408(v)
                                                    366(g),347(v),380(g)
   497. BD*(   1) C  27 - C  30          0.01454     0.61703   
   498. BD*(   1) N  28 - O  35          0.01009     0.35116   
   499. BD*(   1) C  29 - C  30          0.01182     0.69788   
   500. BD*(   2) C  29 - C  30          0.13342     0.11889  496(v),408(g),505(v),504(v)
                                                    399(g)
   501. BD*(   1) C  29 - C  31          0.00947     0.51937   
   502. BD*(   1) C  29 - O  35          0.02110     0.46274   
   503. BD*(   1) C  30 - H  36          0.00647     0.53978   
   504. BD*(   1) C  31 - H  32          0.00512     0.47594   
   505. BD*(   1) C  31 - H  33          0.00515     0.47649   
   506. BD*(   1) C  31 - H  34          0.00196     0.47850   
       -------------------------------
              Total Lewis   84.32555  ( 97.1761%)
        Valence non-Lewis    2.18613  (  2.5193%)
        Rydberg non-Lewis    0.26434  (  0.3046%)
       -------------------------------
            Total unit  1   86.77602  (100.0000%)
           Charge unit  1   -0.27602
 
 Molecular unit  2  (H)
    83. LP*(   1) H  22                  0.22169     0.31203  314(g),312(r),313(r),302(r)
                                                    316(g),306(r),317(g),480(r)
                                                    490(r),478(r),200(r),304(r)
                                                    307(r),318(r),305(r),160(r)
                                                    190(r),339(r),308(r),477(r)
                                                    492(r),113(r),147(r),310(r)
                                                    204(r),201(r),476(r),186(r)
                                                    202(r),481(r),475(r),466(r)
                                                    196(r),482(r),491(r),473(r)
                                                    193(r),140(r),152(r),206(r)
                                                    161(r),338(r),153(r),198(r)
                                                    331(r),197(r)
   314. RY*(   1) H  22                  0.00176     1.18515   
   315. RY*(   2) H  22                  0.00029     2.43554   
   316. RY*(   3) H  22                  0.00021     2.96821   
   317. RY*(   4) H  22                  0.00003     2.93722   
       -------------------------------
              Total Lewis    0.00000  (  0.0000%)
        Valence non-Lewis    0.22169  ( 98.9775%)
        Rydberg non-Lewis    0.00229  (  1.0225%)
       -------------------------------
            Total unit  2    0.22398  (100.0000%)
           Charge unit  2    0.27602
 Unable to Open any file for archive entry.
 1\1\GINC-USER\SP\UM06\6-31+G(d,p)\C14H13N3O5S1(1-,2)\USER\25-May-2022\
 0\\# pop=nbo m06/6-31+g(d,p)\\Isoxicam\\-1,2\C,0,-3.098007,-0.275499,-
 0.146862\C,0,-4.445792,-0.596026,-0.097961\C,0,-5.374198,0.427261,0.07
 4677\C,0,-4.944761,1.747869,0.190277\C,0,-3.59025,2.05859,0.151763\C,0
 ,-2.642744,1.044344,-0.006799\H,0,-4.754851,-1.63404,-0.193689\H,0,-6.
 434546,0.192607,0.115283\H,0,-5.673486,2.544159,0.317463\H,0,-3.249437
 ,3.085383,0.248983\C,0,-1.208229,1.349557,-0.016675\C,0,-0.257033,0.38
 307,0.184438\S,0,-1.886158,-1.539543,-0.464455\O,0,-1.462781,-1.448168
 ,-1.848846\O,0,-2.350088,-2.792883,0.106895\N,0,-0.6161,-0.969118,0.48
 9651\C,0,-0.725886,-1.270929,1.927933\H,0,0.227601,-1.008014,2.396092\
 H,0,-1.528297,-0.690869,2.407316\H,0,-0.909014,-2.338376,2.0628\O,0,-0
 .910954,2.619516,-0.254694\H,0,0.079459,2.69914,-0.21389\C,0,1.162088,
 0.713207,0.0756\O,0,1.553129,1.884878,-0.047724\N,0,2.015069,-0.349066
 ,0.122458\H,0,1.600571,-1.277117,0.126214\C,0,3.39782,-0.283988,0.0498
 77\N,0,4.062891,-1.418077,0.103036\C,0,5.490051,0.286626,-0.087228\C,0
 ,4.249606,0.84527,-0.069912\C,0,6.854195,0.8464,-0.194389\H,0,7.456061
 ,0.576813,0.680255\H,0,7.365954,0.457797,-1.081518\H,0,6.809122,1.9356
 64,-0.266041\O,0,5.394054,-1.050293,0.013703\H,0,3.968335,1.884452,-0.
 137094\\Version=ES64L-G16RevC.01\State=2-A\HF=-1479.2108745\S2=0.75982
 \S2-1=0.\S2A=0.750077\RMSD=4.331e-09\Dipole=1.7820751,0.8500652,1.0942
 017\Quadrupole=-7.7491581,-2.5560035,10.3051616,6.7457487,-3.2921526,-
 2.1758611\PG=C01 [X(C14H13N3O5S1)]\\@
 The archive entry for this job was punched.


 Discoveries are often made by not following instructions,
 by going off the main road, by trying the untried.
 -- Frank Tyger
 Job cpu time:       0 days  3 hours 21 minutes 16.3 seconds.
 Elapsed time:       0 days  0 hours 51 minutes 29.8 seconds.
 File lengths (MBytes):  RWF=    240 Int=      0 D2E=      0 Chk=     19 Scr=      1
 Normal termination of Gaussian 16 at Wed May 25 14:50:53 2022.
